       N       E                     dE             d eps       ncg     rms          rms(c)
DAV:   1     0.440149117882E+03    0.44015E+03   -0.25922E+04  6792   0.161E+03
DAV:   2    -0.262413600086E+01   -0.44277E+03   -0.42899E+03  7416   0.474E+02
DAV:   3    -0.241220066429E+02   -0.21498E+02   -0.21247E+02  7404   0.108E+02
DAV:   4    -0.243596923165E+02   -0.23769E+00   -0.23754E+00  7288   0.126E+01
DAV:   5    -0.243622774982E+02   -0.25852E-02   -0.25850E-02  7444   0.133E+00    0.176E+01
DAV:   6    -0.227398285057E+02    0.16224E+01   -0.15414E+01  7008   0.354E+01    0.710E+00
DAV:   7    -0.221931581729E+02    0.54667E+00   -0.25140E+00  6980   0.170E+01    0.367E+00
DAV:   8    -0.222107552468E+02   -0.17597E-01   -0.40744E-01  7148   0.405E+00    0.150E+00
DAV:   9    -0.222061558672E+02    0.45994E-02   -0.23798E-02  7304   0.139E+00    0.441E-01
DAV:  10    -0.222075334406E+02   -0.13776E-02   -0.25740E-03  7092   0.413E-01    0.176E-01
DAV:  11    -0.222077200431E+02   -0.18660E-03   -0.35506E-04  7360   0.125E-01    0.864E-02
DAV:  12    -0.222077310467E+02   -0.11004E-04   -0.51913E-05  7220   0.528E-02    0.208E-02
DAV:  13    -0.222077410602E+02   -0.10014E-04   -0.13139E-05  7176   0.253E-02    0.844E-03
DAV:  14    -0.222077424725E+02   -0.14123E-05   -0.16947E-06  5072   0.101E-02    0.332E-03
DAV:  15    -0.222077426915E+02   -0.21897E-06   -0.54731E-07  4292   0.587E-03
   1 F= -.23451466E+02 E0= -.23450758E+02  d E =-.141632E-02  mag=    -0.0000
