 vasp.6.4.3 19Mar24 (build Nov 27 2025 15:18:09) complex                         
 executed on              LinuxNV date 2026.06.04  16:39:42
 running    4 mpi-ranks, with    1 threads/rank, on    1 nodes
 distrk:  each k-point on    4 cores,    1 groups
 distr:  one band on NCORE=   1 cores,    4 groups
 OpenACC runtime initialized ...    0 GPUs detected


--------------------------------------------------------------------------------------------------------


 INCAR:
   SYSTEM = pddmc
   ENCUT = 450
   PREC = Accurate
   LASPH = .TRUE.
   ADDGRID = .TRUE.
   ISPIN = 2
   IVDW = 12
   EDIFF = 1e-06
   NELM = 200
   NELMIN = 5
   ALGO = Normal
   NCORE = 1
   LREAL = .FALSE.
   LWAVE = .FALSE.
   LCHARG = .FALSE.
   LORBIT = 11
   ISYM = 2
   IBRION = -1
   NSW = 0
   ISIF = 0
   ISMEAR = 0
   SIGMA = 0.05
   EDIFFG = -0.01

 POTCAR:    PAW_PBE Pd_pv 28Jan2005               
 POTCAR:    PAW_PBE O 08Apr2002                   
 -----------------------------------------------------------------------------
|                                                                             |
|           W    W    AA    RRRRR   N    N  II  N    N   GGGG   !!!           |
|           W    W   A  A   R    R  NN   N  II  NN   N  G    G  !!!           |
|           W    W  A    A  R    R  N N  N  II  N N  N  G       !!!           |
|           W WW W  AAAAAA  RRRRR   N  N N  II  N  N N  G  GGG   !            |
|           WW  WW  A    A  R   R   N   NN  II  N   NN  G    G                |
|           W    W  A    A  R    R  N    N  II  N    N   GGGG   !!!           |
|                                                                             |
|     You use a magnetic or noncollinear calculation, but did not specify     |
|     the initial magnetic moment with the MAGMOM tag. Note that a            |
|     default of 1 will be used for all atoms. This ferromagnetic setup       |
|     may break the symmetry of the crystal, in particular it may rule        |
|     out finding an antiferromagnetic solution. Thence, we recommend         |
|     setting the initial magnetic moment manually or verifying carefully     |
|     that this magnetic setup is desired.                                    |
|                                                                             |
 -----------------------------------------------------------------------------

 POTCAR:    PAW_PBE Pd_pv 28Jan2005               
   SHA256 =  3ce661545bbde58da9a95410dea32907db2844916708bcd35bbe03ee66324d7f Pd_pv/POTCAR          
   COPYR  = (c) Copyright 28Jan2005 Georg Kresse                                                    
   COPYR  = This file is part of the software VASP. Any use, copying, and all other rights are regul
   COPYR  = If you do not have a valid VASP license, you may not use, copy or distribute this file. 
   VRHFIN =Pd: 4p5s4d                                                                               
   LEXCH  = PE                                                                                      
   EATOM  =  2621.5550 eV,  192.6789 Ry                                                             
                                                                                                    
   TITEL  = PAW_PBE Pd_pv 28Jan2005                                                                 
   LULTRA =        F    use ultrasoft PP ?                                                          
   IUNSCR =        1    unscreen: 0-lin 1-nonlin 2-no                                               
   RPACOR =    2.250    partial core radius                                                         
   POMASS =  106.420; ZVAL   =   16.000    mass and valenz                                          
   RCORE  =    2.400    outmost cutoff radius                                                       
   RWIGS  =    2.300; RWIGS  =    1.217    wigner-seitz radius (au A)                               
   ENMAX  =  250.925; ENMIN  =  188.194 eV                                                          
   ICORE  =        3    local potential                                                             
   LCOR   =        T    correct aug charges                                                         
   LPAW   =        T    paw PP                                                                      
   EAUG   =  473.067                                                                                
   DEXC   =    0.000                                                                                
   RMAX   =    2.449    core radius for proj-oper                                                   
   RAUG   =    1.300    factor for augmentation sphere                                              
   RDEP   =    2.405    radius for radial grids                                                     
   RDEPT  =    1.966    core radius for aug-charge                                                  
                                                                                                    
   Atomic configuration                                                                             
   11 entries                                                                                       
     n  l   j            E        occ.                                                              
     1  0  0.50    -24164.6632   2.0000                                                             
     2  0  0.50     -3530.9218   2.0000                                                             
     2  1  1.50     -3165.6822   6.0000                                                             
     3  0  0.50      -639.4578   2.0000                                                             
     3  1  1.50      -519.4532   6.0000                                                             
     3  2  2.50      -328.9758  10.0000                                                             
     4  0  0.50       -88.7014   2.0000                                                             
     4  1  1.50       -54.4541   6.0000                                                             
     4  2  2.50        -6.6878   9.0000                                                             
     5  0  0.50        -4.3543   1.0000                                                             
     4  3  2.50        -1.3606   0.0000                                                             
   Description                                                                                      
     l       E           TYP  RCUT    TYP  RCUT                                                     
     1    -54.4540524     23  2.100                                                                 
     1      4.0817478     23  2.100                                                                 
     2     -6.6878326     23  2.400                                                                 
     2     -4.0817478     23  2.400                                                                 
     0     -4.3542962     23  2.400                                                                 
     0     13.6058260     23  2.400                                                                 
     3     -5.4423304     23  2.400                                                                 
  local pseudopotential read in
  partial core-charges read in
  partial kinetic energy density read in
  atomic valenz-charges read in
  non local Contribution for L=            1  read in
    real space projection operators read in
  non local Contribution for L=            1  read in
    real space projection operators read in
  non local Contribution for L=            2  read in
    real space projection operators read in
  non local Contribution for L=            2  read in
    real space projection operators read in
  non local Contribution for L=            0  read in
    real space projection operators read in
  non local Contribution for L=            0  read in
    real space projection operators read in
    PAW grid and wavefunctions read in
 
   number of l-projection  operators is LMAX  =            6
   number of lm-projection operators is LMMAX =           18
 
 POTCAR:    PAW_PBE O 08Apr2002                   
   SHA256 =  818f92134a0a090dccd8ba1447fa70422a3b330e708bb4f08108d8ae51209ddf O/POTCAR              
   COPYR  = (c) Copyright 08Apr2002 Georg Kresse                                                    
   COPYR  = This file is part of the software VASP. Any use, copying, and all other rights are regul
   COPYR  = If you do not have a valid VASP license, you may not use, copy or distribute this file. 
   VRHFIN =O: s2p4                                                                                  
   LEXCH  = PE                                                                                      
   EATOM  =   432.3788 eV,   31.7789 Ry                                                             
                                                                                                    
   TITEL  = PAW_PBE O 08Apr2002                                                                     
   LULTRA =        F    use ultrasoft PP ?                                                          
   IUNSCR =        1    unscreen: 0-lin 1-nonlin 2-no                                               
   RPACOR =    1.200    partial core radius                                                         
   POMASS =   16.000; ZVAL   =    6.000    mass and valenz                                          
   RCORE  =    1.520    outmost cutoff radius                                                       
   RWIGS  =    1.550; RWIGS  =    0.820    wigner-seitz radius (au A)                               
   ENMAX  =  400.000; ENMIN  =  300.000 eV                                                          
   ICORE  =        2    local potential                                                             
   LCOR   =        T    correct aug charges                                                         
   LPAW   =        T    paw PP                                                                      
   EAUG   =  605.392                                                                                
   DEXC   =    0.000                                                                                
   RMAX   =    1.553    core radius for proj-oper                                                   
   RAUG   =    1.300    factor for augmentation sphere                                              
   RDEP   =    1.550    radius for radial grids                                                     
   RDEPT  =    1.329    core radius for aug-charge                                                  
                                                                                                    
   Atomic configuration                                                                             
    4 entries                                                                                       
     n  l   j            E        occ.                                                              
     1  0  0.50      -514.6923   2.0000                                                             
     2  0  0.50       -23.9615   2.0000                                                             
     2  1  0.50        -9.0305   4.0000                                                             
     3  2  1.50        -9.5241   0.0000                                                             
   Description                                                                                      
     l       E           TYP  RCUT    TYP  RCUT                                                     
     0    -23.9615318     23  1.200                                                                 
     0     -9.5240782     23  1.200                                                                 
     1     -9.0304911     23  1.520                                                                 
     1      8.1634956     23  1.520                                                                 
     2     -9.5240782      7  1.500                                                                 
  local pseudopotential read in
  partial core-charges read in
  partial kinetic energy density read in
  kinetic energy density of atom read in
  atomic valenz-charges read in
  non local Contribution for L=            0  read in
    real space projection operators read in
  non local Contribution for L=            0  read in
    real space projection operators read in
  non local Contribution for L=            1  read in
    real space projection operators read in
  non local Contribution for L=            1  read in
    real space projection operators read in
    PAW grid and wavefunctions read in
 
   number of l-projection  operators is LMAX  =            4
   number of lm-projection operators is LMMAX =            8
 
  PAW_PBE Pd_pv 28Jan2005               :
 energy of atom  1       EATOM=-2621.5550
 kinetic energy error for atom=    0.0101 (will be added to EATOM!!)
  PAW_PBE O 08Apr2002                   :
 energy of atom  2       EATOM= -432.3788
 kinetic energy error for atom=    0.0389 (will be added to EATOM!!)
 
 
 POSCAR: Pd O
  positions in cartesian coordinates
  No initial velocities read in
 IVDW         = 12
 VDW_S6       =    1.0000
 VDW_S8       =    0.7875
 VDW_A1       =    0.4289
 VDW_A2       =    4.4407
 VDW_RADIUS   =   50.2022 A
 VDW_CNRADIUS =   21.1671 A


 exchange-correlation table for PE
   RHO(1)=    0.500       N(1)  =     2000
   RHO(2)=  100.500       N(2)  =     4000
 


--------------------------------------------------------------------------------------------------------


 ion  position               nearest neighbor table
   1  0.500  0.000  0.500-   3 2.03   4 2.03   3 2.03   4 2.03
   2  0.000  0.500  0.000-   3 2.03   4 2.03   3 2.03   4 2.03
   3  0.000  0.000  0.750-   1 2.03   2 2.03   2 2.03   1 2.03
   4  0.000  0.000  0.250-   1 2.03   2 2.03   2 2.03   1 2.03
 
  LATTYP: Found a simple tetragonal cell.
 ALAT       =     3.0536041100
 C/A-ratio  =     1.7589892457
  
  Lattice vectors:
  
 A1 = (   3.0536041100,   0.0000000000,   0.0000000000)
 A2 = (   0.0000000000,   3.0536041100,   0.0000000000)
 A3 = (   0.0000000000,   0.0000000000,   5.3712567900)


Analysis of symmetry for initial positions (statically):
=====================================================================
 Subroutine PRICEL returns:
 Original cell was already a primitive cell.
 

 Routine SETGRP: Setting up the symmetry group for a 
 simple tetragonal supercell.


 Subroutine GETGRP returns: Found 16 space group operations
 (whereof  8 operations were pure point group operations)
 out of a pool of 16 trial point group operations.


The static configuration has the point symmetry D_2h.
 The point group associated with its full space group is D_4h.


Analysis of symmetry for dynamics (positions and initial velocities):
=====================================================================
 Subroutine PRICEL returns:
 Original cell was already a primitive cell.
 

 Routine SETGRP: Setting up the symmetry group for a 
 simple tetragonal supercell.


 Subroutine GETGRP returns: Found 16 space group operations
 (whereof  8 operations were pure point group operations)
 out of a pool of 16 trial point group operations.


The dynamic configuration has the point symmetry D_2h.
 The point group associated with its full space group is D_4h.


Analysis of structural, dynamic, and magnetic symmetry:
=====================================================================
 Subroutine PRICEL returns:
 Original cell was already a primitive cell.
 

 Routine SETGRP: Setting up the symmetry group for a 
 simple tetragonal supercell.


 Subroutine GETGRP returns: Found 16 space group operations
 (whereof  8 operations were pure point group operations)
 out of a pool of 16 trial point group operations.


The overall configuration has the point symmetry D_2h.
 The point group associated with its full space group is D_4h.


 Subroutine INISYM returns: Found 16 space group operations
 (whereof  8 operations are pure point group operations),
 and found     1 'primitive' translations


----------------------------------------------------------------------------------------

                                     Primitive cell                                     

  volume of cell :      50.0843

  direct lattice vectors                    reciprocal lattice vectors
     3.053604110  0.000000000  0.000000000     0.327481875 -0.000000000  0.000000000
     0.000000000  3.053604110  0.000000000     0.000000000  0.327481875  0.000000000
     0.000000000  0.000000000  5.371256790    -0.000000000 -0.000000000  0.186176167

  length of vectors
     3.053604110  3.053604110  5.371256790     0.327481875  0.327481875  0.186176167

  position of ions in fractional coordinates (direct lattice)
     0.500000000  0.000000000  0.500000000
     0.000000000  0.500000000  0.000000000
     0.000000000  0.000000000  0.750000000
     0.000000000  0.000000000  0.250000000

  ion indices of the primitive-cell ions
   primitive index   ion index
                 1           1
                 2           2
                 3           3
                 4           4

----------------------------------------------------------------------------------------

 
 
 KPOINTS: Automatic mesh                          

Automatic generation of k-mesh.
 Grid dimensions read from file:
 generate k-points for:    8    8    6

 Generating k-lattice:

  Cartesian coordinates                     Fractional coordinates (reciprocal lattice)
     0.040935234 -0.000000000  0.000000000     0.125000000  0.000000000  0.000000000
     0.000000000  0.040935234  0.000000000     0.000000000  0.125000000  0.000000000
    -0.000000000 -0.000000000  0.031029361     0.000000000  0.000000000  0.166666667

  Length of vectors
     0.040935234  0.040935234  0.031029361

  Shift w.r.t. Gamma in fractional coordinates (k-lattice)
     0.000000000  0.000000000  0.000000000

 
 Subroutine IBZKPT returns following result:
 ===========================================
 
 Found     60 irreducible k-points:
 
 Following reciprocal coordinates:
            Coordinates               Weight
  0.000000  0.000000  0.000000      1.000000
  0.125000  0.000000  0.000000      4.000000
  0.250000  0.000000  0.000000      4.000000
  0.375000  0.000000  0.000000      4.000000
  0.500000  0.000000  0.000000      2.000000
  0.125000  0.125000  0.000000      4.000000
  0.250000  0.125000  0.000000      8.000000
  0.375000  0.125000  0.000000      8.000000
  0.500000  0.125000  0.000000      4.000000
  0.250000  0.250000  0.000000      4.000000
  0.375000  0.250000  0.000000      8.000000
  0.500000  0.250000  0.000000      4.000000
  0.375000  0.375000  0.000000      4.000000
  0.500000  0.375000  0.000000      4.000000
  0.500000  0.500000  0.000000      1.000000
  0.000000  0.000000  0.166667      2.000000
  0.125000  0.000000  0.166667      8.000000
  0.250000  0.000000  0.166667      8.000000
  0.375000  0.000000  0.166667      8.000000
  0.500000  0.000000  0.166667      4.000000
  0.125000  0.125000  0.166667      8.000000
  0.250000  0.125000  0.166667     16.000000
  0.375000  0.125000  0.166667     16.000000
  0.500000  0.125000  0.166667      8.000000
  0.250000  0.250000  0.166667      8.000000
  0.375000  0.250000  0.166667     16.000000
  0.500000  0.250000  0.166667      8.000000
  0.375000  0.375000  0.166667      8.000000
  0.500000  0.375000  0.166667      8.000000
  0.500000  0.500000  0.166667      2.000000
  0.000000  0.000000  0.333333      2.000000
  0.125000  0.000000  0.333333      8.000000
  0.250000  0.000000  0.333333      8.000000
  0.375000  0.000000  0.333333      8.000000
  0.500000  0.000000  0.333333      4.000000
  0.125000  0.125000  0.333333      8.000000
  0.250000  0.125000  0.333333     16.000000
  0.375000  0.125000  0.333333     16.000000
  0.500000  0.125000  0.333333      8.000000
  0.250000  0.250000  0.333333      8.000000
  0.375000  0.250000  0.333333     16.000000
  0.500000  0.250000  0.333333      8.000000
  0.375000  0.375000  0.333333      8.000000
  0.500000  0.375000  0.333333      8.000000
  0.500000  0.500000  0.333333      2.000000
  0.000000  0.000000  0.500000      1.000000
  0.125000  0.000000  0.500000      4.000000
  0.250000  0.000000  0.500000      4.000000
  0.375000  0.000000  0.500000      4.000000
  0.500000  0.000000  0.500000      2.000000
  0.125000  0.125000  0.500000      4.000000
  0.250000  0.125000  0.500000      8.000000
  0.375000  0.125000  0.500000      8.000000
  0.500000  0.125000  0.500000      4.000000
  0.250000  0.250000  0.500000      4.000000
  0.375000  0.250000  0.500000      8.000000
  0.500000  0.250000  0.500000      4.000000
  0.375000  0.375000  0.500000      4.000000
  0.500000  0.375000  0.500000      4.000000
  0.500000  0.500000  0.500000      1.000000
 
 Following cartesian coordinates:
            Coordinates               Weight
  0.000000  0.000000  0.000000      1.000000
  0.040935  0.000000  0.000000      4.000000
  0.081870  0.000000  0.000000      4.000000
  0.122806  0.000000  0.000000      4.000000
  0.163741  0.000000  0.000000      2.000000
  0.040935  0.040935  0.000000      4.000000
  0.081870  0.040935  0.000000      8.000000
  0.122806  0.040935  0.000000      8.000000
  0.163741  0.040935  0.000000      4.000000
  0.081870  0.081870  0.000000      4.000000
  0.122806  0.081870  0.000000      8.000000
  0.163741  0.081870  0.000000      4.000000
  0.122806  0.122806  0.000000      4.000000
  0.163741  0.122806  0.000000      4.000000
  0.163741  0.163741  0.000000      1.000000
  0.000000  0.000000  0.031029      2.000000
  0.040935  0.000000  0.031029      8.000000
  0.081870  0.000000  0.031029      8.000000
  0.122806  0.000000  0.031029      8.000000
  0.163741  0.000000  0.031029      4.000000
  0.040935  0.040935  0.031029      8.000000
  0.081870  0.040935  0.031029     16.000000
  0.122806  0.040935  0.031029     16.000000
  0.163741  0.040935  0.031029      8.000000
  0.081870  0.081870  0.031029      8.000000
  0.122806  0.081870  0.031029     16.000000
  0.163741  0.081870  0.031029      8.000000
  0.122806  0.122806  0.031029      8.000000
  0.163741  0.122806  0.031029      8.000000
  0.163741  0.163741  0.031029      2.000000
  0.000000  0.000000  0.062059      2.000000
  0.040935  0.000000  0.062059      8.000000
  0.081870  0.000000  0.062059      8.000000
  0.122806  0.000000  0.062059      8.000000
  0.163741  0.000000  0.062059      4.000000
  0.040935  0.040935  0.062059      8.000000
  0.081870  0.040935  0.062059     16.000000
  0.122806  0.040935  0.062059     16.000000
  0.163741  0.040935  0.062059      8.000000
  0.081870  0.081870  0.062059      8.000000
  0.122806  0.081870  0.062059     16.000000
  0.163741  0.081870  0.062059      8.000000
  0.122806  0.122806  0.062059      8.000000
  0.163741  0.122806  0.062059      8.000000
  0.163741  0.163741  0.062059      2.000000
  0.000000  0.000000  0.093088      1.000000
  0.040935  0.000000  0.093088      4.000000
  0.081870  0.000000  0.093088      4.000000
  0.122806  0.000000  0.093088      4.000000
  0.163741  0.000000  0.093088      2.000000
  0.040935  0.040935  0.093088      4.000000
  0.081870  0.040935  0.093088      8.000000
  0.122806  0.040935  0.093088      8.000000
  0.163741  0.040935  0.093088      4.000000
  0.081870  0.081870  0.093088      4.000000
  0.122806  0.081870  0.093088      8.000000
  0.163741  0.081870  0.093088      4.000000
  0.122806  0.122806  0.093088      4.000000
  0.163741  0.122806  0.093088      4.000000
  0.163741  0.163741  0.093088      1.000000
 


--------------------------------------------------------------------------------------------------------




 Dimension of arrays:
   k-points           NKPTS =     60   k-points in BZ     NKDIM =     60   number of bands    NBANDS=     28
   number of dos      NEDOS =    301   number of ions     NIONS =      4
   non local maximal  LDIM  =      6   non local SUM 2l+1 LMDIM =     18
   total plane-waves  NPLWV =  23040
   max r-space proj   IRMAX =      1   max aug-charges    IRDMAX= 147517
   dimension x,y,z NGX =    24 NGY =   24 NGZ =   40
   dimension x,y,z NGXF=    48 NGYF=   48 NGZF=   80
   support grid    NGXF=    96 NGYF=   96 NGZF=  160
   ions per type =               2   2
   NGX,Y,Z   is equivalent  to a cutoff of  13.07, 13.07, 12.38 a.u.
   NGXF,Y,Z  is equivalent  to a cutoff of  26.13, 26.13, 24.76 a.u.

 SYSTEM =  pddmc                                   
 POSCAR =  Pd O                                    

 Startparameter for this run:
   NWRITE =      2    write-flag & timer
   PREC   = accura    normal or accurate (medium, high low for compatibility)
   ISTART =      0    job   : 0-new  1-cont  2-samecut
   ICHARG =      2    charge: 1-file 2-atom 10-const
   ISPIN  =      2    spin polarized calculation?
   LNONCOLLINEAR =      F non collinear calculations
   LSORBIT =      F    spin-orbit coupling
   INIWAV =      1    electr: 0-lowe 1-rand  2-diag
   LASPH  =      T    aspherical Exc in radial PAW
 Electronic Relaxation 1
   ENCUT  =  450.0 eV  33.07 Ry    5.75 a.u.   5.28  5.28  9.29*2*pi/ulx,y,z
   ENINI  =  450.0     initial cutoff
   ENAUG  =  605.4 eV  augmentation charge cutoff
   NELM   =    200;   NELMIN=  5; NELMDL= -5     # of ELM steps 
   EDIFF  = 0.1E-05   stopping-criterion for ELM
   LREAL  =      F    real-space projection
   NLSPLINE    = F    spline interpolate recip. space projectors
   LCOMPAT=      F    compatible to vasp.4.4
   GGA_COMPAT  = T    GGA compatible to vasp.4.4-vasp.4.6
   LMAXPAW     = -100 max onsite density
   LMAXMIX     =    2 max onsite mixed and CHGCAR
   VOSKOWN=      0    Vosko Wilk Nusair interpolation
   ROPT   =    0.00000   0.00000
 Ionic relaxation
   EDIFFG = -.1E-01   stopping-criterion for IOM
   NSW    =      0    number of steps for IOM
   NBLOCK =      1;   KBLOCK =      1    inner block; outer block 
   IBRION =     -1    ionic relax: 0-MD 1-quasi-New 2-CG
   NFREE  =      0    steps in history (QN), initial steepest desc. (CG)
   ISIF   =      0    stress and relaxation
   IWAVPR =     10    prediction:  0-non 1-charg 2-wave 3-comb
   ISYM   =      2    0-nonsym 1-usesym 2-fastsym
   LCORR  =      T    Harris-Foulkes like correction to forces

   POTIM  = 0.5000    time-step for ionic-motion
   TEIN   =    0.0    initial temperature
   TEBEG  =    0.0;   TEEND  =   0.0 temperature during run
   SMASS  =  -3.00    Nose mass-parameter (am)
   estimated Nose-frequenzy (Omega)   =  0.10E-29 period in steps = 0.13E+47 mass=  -0.213E-27a.u.
   SCALEE = 1.0000    scale energy and forces
   NPACO  =    256;   APACO  = 10.0  distance and # of slots for P.C.
   PSTRESS=    0.0 pullay stress

  Mass of Ions in am
   POMASS = 106.42 16.00
  Ionic Valenz
   ZVAL   =  16.00  6.00
  Atomic Wigner-Seitz radii
   RWIGS  =  -1.00 -1.00
  virtual crystal weights 
   VCA    =   1.00  1.00
   NELECT =      44.0000    total number of electrons
   NUPDOWN=      -1.0000    fix difference up-down

 DOS related values:
   EMIN   =  10.00;   EMAX   =-10.00  energy-range for DOS
   EFERMI =   0.00;   METHOD = LEGACY      
   ISMEAR =     0;   SIGMA  =   0.05  broadening in eV -4-tet -1-fermi 0-gaus

 Electronic relaxation 2 (details)
   IALGO  =     38    algorithm
   LDIAG  =      T    sub-space diagonalisation (order eigenvalues)
   LSUBROT=      F    optimize rotation matrix (better conditioning)
   TURBO    =      0    0=normal 1=particle mesh
   IRESTART =      0    0=no restart 2=restart with 2 vectors
   NREBOOT  =      0    no. of reboots
   NMIN     =      0    reboot dimension
   EREF     =   0.00    reference energy to select bands
   IMIX   =      4    mixing-type and parameters
     AMIX     =   0.40;   BMIX     =  1.00
     AMIX_MAG =   1.60;   BMIX_MAG =  1.00
     AMIN     =   0.10
     WC   =   100.;   INIMIX=   1;  MIXPRE=   1;  MAXMIX= -45

 Intra band minimization:
   WEIMIN = 0.0000     energy-eigenvalue tresh-hold
   EBREAK =  0.89E-08  absolut break condition
   DEPER  =   0.30     relativ break condition  

   TIME   =   0.40     timestep for ELM

  volume/ion in A,a.u.               =      12.52        84.50
  Fermi-wavevector in a.u.,A,eV,Ry     =   1.567925  2.962948 33.448407  2.458389
  Thomas-Fermi vector in A             =   2.670032
 
 Write flags
   LWAVE        =      F    write WAVECAR
   LDOWNSAMPLE  =      F    k-point downsampling of WAVECAR
   LCHARG       =      F    write CHGCAR
   LVTOT        =      F    write LOCPOT, total local potential
   LVHAR        =      F    write LOCPOT, Hartree potential only
   WRT_POTENTIAL= false  ! write potential to hdf5 file
   LELF         =      F    write electronic localiz. function (ELF)
   LORBIT       =     11    0 simple, 1 ext, 2 COOP (PROOUT), +10 PAW based schemes


 Dipole corrections
   LMONO      =      F    monopole corrections only (constant potential shift)
   LDIPOL     =      F    correct potential (dipole corrections)
   IDIPOL     =      0    1-x, 2-y, 3-z, 4-all directions 
   EPSILON    =  1.0000000 bulk dielectric constant
   LVACPOTAV  =      F  vacuum potentials using an averaging scheme for the charge density
   VACPOTFLAT =  0.1000000 required flatness to determine vacuum potential
 Exchange correlation treatment:
   GGA     = PE    functional components
   XC_C    = 1    coefficients multiplying the functional components
   LIBXC   =     F    Libxc                    
   VOSKOWN =     0    Vosko Wilk Nusair interpolation
   LHFCALC =     F    Hartree Fock is set to
   LHFONE  =     F    Hartree Fock one center treatment
   AEXX    =    0.0000 exact exchange contribution

 Parameters of functionals:
   PE:
     No parameter
 
 Van der Waals corrections
   IVDW    =    12    specifies the selected vdW correction

 Linear response parameters
   LEPSILON=     F    determine dielectric tensor
   LRPA    =     F    only Hartree local field effects (RPA)
   LNABLA  =     F    use nabla operator in PAW spheres
   LVEL    =     F    velocity operator in full k-point grid
   CSHIFT  =0.1000    complex shift for real part using Kramers Kronig
   OMEGAMAX=  -1.0    maximum frequency
   DEG_THRESHOLD= 0.2000000E-02 threshold for treating states as degnerate
   RTIME   =   -0.100 relaxation time in fs
  (WPLASMAI=    0.000 imaginary part of plasma frequency in eV, 0.658/RTIME)
   DFIELD  = 0.0000000 0.0000000 0.0000000 field for delta impulse in time
 
  Optional k-point grid parameters
   LKPOINTS_OPT  =     F    use optional k-point grid
   KPOINTS_OPT_MODE=     1    mode for optional k-point grid
 
 Orbital magnetization related:
   ORBITALMAG=     F  switch on orbital magnetization
   LCHIMAG   =     F  perturbation theory with respect to B field
   DQ        =  0.001000  dq finite difference perturbation B field
   LLRAUG    =     F  two centre corrections for induced B field
   LBONE     =     F  B-component reconstruction in AE one-centre
   LVGVCALC  =     T  calculate vGv susceptibility
   LVGVAPPL  =     F  apply vGv susceptibility instead of pGv for G=0

 Random number generation:
   RANDOM_GENERATOR = DEFAULT
   PCG_SEED         = not used


--------------------------------------------------------------------------------------------------------


 Static calculation
 charge density and potential will be updated during run
 spin polarized calculation
 Variant of blocked Davidson
 Davidson routine will perform the subspace rotation
 perform sub-space diagonalisation
    after iterative eigenvector-optimisation
 modified Broyden-mixing scheme, WC =      100.0
 initial mixing is a Kerker type mixing with AMIX =  0.4000 and BMIX =      1.0000
 Hartree-type preconditioning will be used
 using additional bands             6
 reciprocal scheme for non local part
 use partial core corrections
 calculate Harris-corrections to forces 
   (improved forces if not selfconsistent)
 use gradient corrections 
 use of overlap-Matrix (Vanderbilt PP)
 Gauss-broadening in eV      SIGMA  =   0.05


--------------------------------------------------------------------------------------------------------


  energy-cutoff  :      450.00
  volume of cell :       50.08
      direct lattice vectors                 reciprocal lattice vectors
     3.053604110  0.000000000  0.000000000     0.327481875 -0.000000000  0.000000000
     0.000000000  3.053604110  0.000000000     0.000000000  0.327481875  0.000000000
     0.000000000  0.000000000  5.371256790    -0.000000000 -0.000000000  0.186176167

  length of vectors
     3.053604110  3.053604110  5.371256790     0.327481875  0.327481875  0.186176167


 
 k-points in units of 2pi/SCALE and weight: Automatic mesh                          
   0.00000000  0.00000000  0.00000000       0.003
   0.04093523  0.00000000  0.00000000       0.010
   0.08187047  0.00000000  0.00000000       0.010
   0.12280570  0.00000000  0.00000000       0.010
   0.16374094  0.00000000  0.00000000       0.005
   0.04093523  0.04093523  0.00000000       0.010
   0.08187047  0.04093523  0.00000000       0.021
   0.12280570  0.04093523  0.00000000       0.021
   0.16374094  0.04093523  0.00000000       0.010
   0.08187047  0.08187047  0.00000000       0.010
   0.12280570  0.08187047  0.00000000       0.021
   0.16374094  0.08187047  0.00000000       0.010
   0.12280570  0.12280570  0.00000000       0.010
   0.16374094  0.12280570  0.00000000       0.010
   0.16374094  0.16374094  0.00000000       0.003
   0.00000000  0.00000000  0.03102936       0.005
   0.04093523  0.00000000  0.03102936       0.021
   0.08187047  0.00000000  0.03102936       0.021
   0.12280570  0.00000000  0.03102936       0.021
   0.16374094  0.00000000  0.03102936       0.010
   0.04093523  0.04093523  0.03102936       0.021
   0.08187047  0.04093523  0.03102936       0.042
   0.12280570  0.04093523  0.03102936       0.042
   0.16374094  0.04093523  0.03102936       0.021
   0.08187047  0.08187047  0.03102936       0.021
   0.12280570  0.08187047  0.03102936       0.042
   0.16374094  0.08187047  0.03102936       0.021
   0.12280570  0.12280570  0.03102936       0.021
   0.16374094  0.12280570  0.03102936       0.021
   0.16374094  0.16374094  0.03102936       0.005
   0.00000000  0.00000000  0.06205872       0.005
   0.04093523  0.00000000  0.06205872       0.021
   0.08187047  0.00000000  0.06205872       0.021
   0.12280570  0.00000000  0.06205872       0.021
   0.16374094  0.00000000  0.06205872       0.010
   0.04093523  0.04093523  0.06205872       0.021
   0.08187047  0.04093523  0.06205872       0.042
   0.12280570  0.04093523  0.06205872       0.042
   0.16374094  0.04093523  0.06205872       0.021
   0.08187047  0.08187047  0.06205872       0.021
   0.12280570  0.08187047  0.06205872       0.042
   0.16374094  0.08187047  0.06205872       0.021
   0.12280570  0.12280570  0.06205872       0.021
   0.16374094  0.12280570  0.06205872       0.021
   0.16374094  0.16374094  0.06205872       0.005
   0.00000000  0.00000000  0.09308808       0.003
   0.04093523  0.00000000  0.09308808       0.010
   0.08187047  0.00000000  0.09308808       0.010
   0.12280570  0.00000000  0.09308808       0.010
   0.16374094  0.00000000  0.09308808       0.005
   0.04093523  0.04093523  0.09308808       0.010
   0.08187047  0.04093523  0.09308808       0.021
   0.12280570  0.04093523  0.09308808       0.021
   0.16374094  0.04093523  0.09308808       0.010
   0.08187047  0.08187047  0.09308808       0.010
   0.12280570  0.08187047  0.09308808       0.021
   0.16374094  0.08187047  0.09308808       0.010
   0.12280570  0.12280570  0.09308808       0.010
   0.16374094  0.12280570  0.09308808       0.010
   0.16374094  0.16374094  0.09308808       0.003
 
 k-points in reciprocal lattice and weights: Automatic mesh                          
   0.00000000  0.00000000  0.00000000       0.003
   0.12500000  0.00000000  0.00000000       0.010
   0.25000000  0.00000000  0.00000000       0.010
   0.37500000  0.00000000  0.00000000       0.010
   0.50000000  0.00000000  0.00000000       0.005
   0.12500000  0.12500000  0.00000000       0.010
   0.25000000  0.12500000  0.00000000       0.021
   0.37500000  0.12500000  0.00000000       0.021
   0.50000000  0.12500000  0.00000000       0.010
   0.25000000  0.25000000  0.00000000       0.010
   0.37500000  0.25000000  0.00000000       0.021
   0.50000000  0.25000000  0.00000000       0.010
   0.37500000  0.37500000  0.00000000       0.010
   0.50000000  0.37500000  0.00000000       0.010
   0.50000000  0.50000000  0.00000000       0.003
   0.00000000  0.00000000  0.16666667       0.005
   0.12500000  0.00000000  0.16666667       0.021
   0.25000000  0.00000000  0.16666667       0.021
   0.37500000  0.00000000  0.16666667       0.021
   0.50000000  0.00000000  0.16666667       0.010
   0.12500000  0.12500000  0.16666667       0.021
   0.25000000  0.12500000  0.16666667       0.042
   0.37500000  0.12500000  0.16666667       0.042
   0.50000000  0.12500000  0.16666667       0.021
   0.25000000  0.25000000  0.16666667       0.021
   0.37500000  0.25000000  0.16666667       0.042
   0.50000000  0.25000000  0.16666667       0.021
   0.37500000  0.37500000  0.16666667       0.021
   0.50000000  0.37500000  0.16666667       0.021
   0.50000000  0.50000000  0.16666667       0.005
   0.00000000  0.00000000  0.33333333       0.005
   0.12500000  0.00000000  0.33333333       0.021
   0.25000000  0.00000000  0.33333333       0.021
   0.37500000  0.00000000  0.33333333       0.021
   0.50000000  0.00000000  0.33333333       0.010
   0.12500000  0.12500000  0.33333333       0.021
   0.25000000  0.12500000  0.33333333       0.042
   0.37500000  0.12500000  0.33333333       0.042
   0.50000000  0.12500000  0.33333333       0.021
   0.25000000  0.25000000  0.33333333       0.021
   0.37500000  0.25000000  0.33333333       0.042
   0.50000000  0.25000000  0.33333333       0.021
   0.37500000  0.37500000  0.33333333       0.021
   0.50000000  0.37500000  0.33333333       0.021
   0.50000000  0.50000000  0.33333333       0.005
   0.00000000  0.00000000  0.50000000       0.003
   0.12500000  0.00000000  0.50000000       0.010
   0.25000000  0.00000000  0.50000000       0.010
   0.37500000  0.00000000  0.50000000       0.010
   0.50000000  0.00000000  0.50000000       0.005
   0.12500000  0.12500000  0.50000000       0.010
   0.25000000  0.12500000  0.50000000       0.021
   0.37500000  0.12500000  0.50000000       0.021
   0.50000000  0.12500000  0.50000000       0.010
   0.25000000  0.25000000  0.50000000       0.010
   0.37500000  0.25000000  0.50000000       0.021
   0.50000000  0.25000000  0.50000000       0.010
   0.37500000  0.37500000  0.50000000       0.010
   0.50000000  0.37500000  0.50000000       0.010
   0.50000000  0.50000000  0.50000000       0.003
 
 position of ions in fractional coordinates (direct lattice) 
   0.50000000  0.00000000  0.50000000
   0.00000000  0.50000000  0.00000000
   0.00000000  0.00000000  0.75000000
   0.00000000  0.00000000  0.25000000
 
 position of ions in cartesian coordinates  (Angst):
   1.52680206  0.00000000  2.68562840
   0.00000000  1.52680206  0.00000000
   0.00000000  0.00000000  4.02844259
   0.00000000  0.00000000  1.34281420
 


--------------------------------------------------------------------------------------------------------


 k-point     1 :   0.0000 0.0000 0.0000  plane waves:    1067
 k-point     2 :   0.1250 0.0000 0.0000  plane waves:    1089
 k-point     3 :   0.2500 0.0000 0.0000  plane waves:    1099
 k-point     4 :   0.3750 0.0000 0.0000  plane waves:    1084
 k-point     5 :   0.5000 0.0000 0.0000  plane waves:    1090
 k-point     6 :   0.1250 0.1250 0.0000  plane waves:    1093
 k-point     7 :   0.2500 0.1250 0.0000  plane waves:    1090
 k-point     8 :   0.3750 0.1250 0.0000  plane waves:    1092
 k-point     9 :   0.5000 0.1250 0.0000  plane waves:    1090
 k-point    10 :   0.2500 0.2500 0.0000  plane waves:    1081
 k-point    11 :   0.3750 0.2500 0.0000  plane waves:    1086
 k-point    12 :   0.5000 0.2500 0.0000  plane waves:    1068
 k-point    13 :   0.3750 0.3750 0.0000  plane waves:    1086
 k-point    14 :   0.5000 0.3750 0.0000  plane waves:    1084
 k-point    15 :   0.5000 0.5000 0.0000  plane waves:    1096
 k-point    16 :   0.0000 0.0000 0.1667  plane waves:    1087
 k-point    17 :   0.1250 0.0000 0.1667  plane waves:    1091
 k-point    18 :   0.2500 0.0000 0.1667  plane waves:    1089
 k-point    19 :   0.3750 0.0000 0.1667  plane waves:    1084
 k-point    20 :   0.5000 0.0000 0.1667  plane waves:    1092
 k-point    21 :   0.1250 0.1250 0.1667  plane waves:    1092
 k-point    22 :   0.2500 0.1250 0.1667  plane waves:    1086
 k-point    23 :   0.3750 0.1250 0.1667  plane waves:    1082
 k-point    24 :   0.5000 0.1250 0.1667  plane waves:    1082
 k-point    25 :   0.2500 0.2500 0.1667  plane waves:    1084
 k-point    26 :   0.3750 0.2500 0.1667  plane waves:    1085
 k-point    27 :   0.5000 0.2500 0.1667  plane waves:    1084
 k-point    28 :   0.3750 0.3750 0.1667  plane waves:    1084
 k-point    29 :   0.5000 0.3750 0.1667  plane waves:    1086
 k-point    30 :   0.5000 0.5000 0.1667  plane waves:    1092
 k-point    31 :   0.0000 0.0000 0.3333  plane waves:    1102
 k-point    32 :   0.1250 0.0000 0.3333  plane waves:    1091
 k-point    33 :   0.2500 0.0000 0.3333  plane waves:    1077
 k-point    34 :   0.3750 0.0000 0.3333  plane waves:    1081
 k-point    35 :   0.5000 0.0000 0.3333  plane waves:    1080
 k-point    36 :   0.1250 0.1250 0.3333  plane waves:    1091
 k-point    37 :   0.2500 0.1250 0.3333  plane waves:    1085
 k-point    38 :   0.3750 0.1250 0.3333  plane waves:    1079
 k-point    39 :   0.5000 0.1250 0.3333  plane waves:    1084
 k-point    40 :   0.2500 0.2500 0.3333  plane waves:    1076
 k-point    41 :   0.3750 0.2500 0.3333  plane waves:    1085
 k-point    42 :   0.5000 0.2500 0.3333  plane waves:    1088
 k-point    43 :   0.3750 0.3750 0.3333  plane waves:    1087
 k-point    44 :   0.5000 0.3750 0.3333  plane waves:    1092
 k-point    45 :   0.5000 0.5000 0.3333  plane waves:    1100
 k-point    46 :   0.0000 0.0000 0.5000  plane waves:    1090
 k-point    47 :   0.1250 0.0000 0.5000  plane waves:    1096
 k-point    48 :   0.2500 0.0000 0.5000  plane waves:    1098
 k-point    49 :   0.3750 0.0000 0.5000  plane waves:    1090
 k-point    50 :   0.5000 0.0000 0.5000  plane waves:    1080
 k-point    51 :   0.1250 0.1250 0.5000  plane waves:    1092
 k-point    52 :   0.2500 0.1250 0.5000  plane waves:    1084
 k-point    53 :   0.3750 0.1250 0.5000  plane waves:    1078
 k-point    54 :   0.5000 0.1250 0.5000  plane waves:    1076
 k-point    55 :   0.2500 0.2500 0.5000  plane waves:    1074
 k-point    56 :   0.3750 0.2500 0.5000  plane waves:    1078
 k-point    57 :   0.5000 0.2500 0.5000  plane waves:    1088
 k-point    58 :   0.3750 0.3750 0.5000  plane waves:    1086
 k-point    59 :   0.5000 0.3750 0.5000  plane waves:    1100
 k-point    60 :   0.5000 0.5000 0.5000  plane waves:    1088

 maximum and minimum number of plane-waves per node :      1102     1067

 maximum number of plane-waves:      1102
 maximum index in each direction: 
   IXMAX=    5   IYMAX=    5   IZMAX=    9
   IXMIN=   -5   IYMIN=   -5   IZMIN=   -9


 serial   3D FFT for wavefunctions
 parallel 3D FFT for charge:
    minimum data exchange during FFTs selected (reduces bandwidth)


 total amount of memory used by VASP MPI-rank0    77324. kBytes
=======================================================================

   base      :      30000. kBytes
   nonl-proj :      19147. kBytes
   fftplans  :       6896. kBytes
   grid      :       5621. kBytes
   one-center:        124. kBytes
   wavefun   :      15536. kBytes
 
     INWAV:  cpu time      0.0000: real time      0.0001
 Broyden mixing: mesh for mixing (old mesh)
   NGX = 11   NGY = 11   NGZ = 19
  (NGX  = 48   NGY  = 48   NGZ  = 80)
  gives a total of   2299 points

 initial charge density was supplied:
 charge density of overlapping atoms calculated
 number of electron      44.0000000 magnetization       4.0000000
 keeping initial charge density in first step


--------------------------------------------------------------------------------------------------------


 Maximum index for augmentation-charges         35753 (set IRDMAX)


--------------------------------------------------------------------------------------------------------


 First call to EWALD:  gamma=   0.481
 Maximum number of real-space cells 3x 3x 2
 Maximum number of reciprocal cells 2x 2x 4

    FEWALD:  cpu time      0.0004: real time      0.0004


--------------------------------------- Ionic step        1  -------------------------------------------




--------------------------------------- Iteration      1(   1)  ---------------------------------------


    POTLOK:  cpu time      0.0343: real time      0.0343
    SETDIJ:  cpu time      0.4179: real time      0.4412
     EDDAV:  cpu time      2.7483: real time      2.8035
       DOS:  cpu time      0.0006: real time      0.0006
    --------------------------------------------
      LOOP:  cpu time      3.2011: real time      3.2797

 eigenvalue-minimisations  :  6792
 total energy-change (2. order) : 0.4401491E+03  (-0.2592216E+04)
 number of electron      44.0000000 magnetization       4.0000000
 augmentation part       44.0000000 magnetization       4.0000000

 Free energy of the ion-electron system (eV)
  ---------------------------------------------------
  alpha Z        PSCENC =       264.60919239
  Ewald energy   TEWEN  =     -4637.17866551
  -Hartree energ DENC   =     -1556.19354633
  -exchange      EXHF   =         0.00000000
  -V(xc)+E(xc)   XCENC  =       221.00441200
  PAW double counting   =      5208.65407777    -5154.59282805
  entropy T*S    EENTRO =        -0.00066088
  eigenvalues    EBANDS =       -13.92230489
  atomic energy  EATOM  =      6107.76944138
  Solvation  Ediel_sol  =         0.00000000
  ---------------------------------------------------
  free energy    TOTEN  =       440.14911788 eV

  energy without entropy =      440.14977876  energy(sigma->0) =      440.14944832


--------------------------------------------------------------------------------------------------------




--------------------------------------- Iteration      1(   2)  ---------------------------------------


     EDDAV:  cpu time      2.4816: real time      2.5624
       DOS:  cpu time      0.0005: real time      0.0005
    --------------------------------------------
      LOOP:  cpu time      2.4821: real time      2.5629

 eigenvalue-minimisations  :  7416
 total energy-change (2. order) :-0.4427733E+03  (-0.4289861E+03)
 number of electron      44.0000000 magnetization       4.0000000
 augmentation part       44.0000000 magnetization       4.0000000

 Free energy of the ion-electron system (eV)
  ---------------------------------------------------
  alpha Z        PSCENC =       264.60919239
  Ewald energy   TEWEN  =     -4637.17866551
  -Hartree energ DENC   =     -1556.19354633
  -exchange      EXHF   =         0.00000000
  -V(xc)+E(xc)   XCENC  =       221.00441200
  PAW double counting   =      5208.65407777    -5154.59282805
  entropy T*S    EENTRO =        -0.00291772
  eigenvalues    EBANDS =      -456.69330194
  atomic energy  EATOM  =      6107.76944138
  Solvation  Ediel_sol  =         0.00000000
  ---------------------------------------------------
  free energy    TOTEN  =        -2.62413600 eV

  energy without entropy =       -2.62121828  energy(sigma->0) =       -2.62267714


--------------------------------------------------------------------------------------------------------




--------------------------------------- Iteration      1(   3)  ---------------------------------------


     EDDAV:  cpu time      2.4609: real time      2.4623
       DOS:  cpu time      0.0005: real time      0.0005
    --------------------------------------------
      LOOP:  cpu time      2.4614: real time      2.4628

 eigenvalue-minimisations  :  7404
 total energy-change (2. order) :-0.2149787E+02  (-0.2124742E+02)
 number of electron      44.0000000 magnetization       4.0000000
 augmentation part       44.0000000 magnetization       4.0000000

 Free energy of the ion-electron system (eV)
  ---------------------------------------------------
  alpha Z        PSCENC =       264.60919239
  Ewald energy   TEWEN  =     -4637.17866551
  -Hartree energ DENC   =     -1556.19354633
  -exchange      EXHF   =         0.00000000
  -V(xc)+E(xc)   XCENC  =       221.00441200
  PAW double counting   =      5208.65407777    -5154.59282805
  entropy T*S    EENTRO =        -0.00212373
  eigenvalues    EBANDS =      -478.19196657
  atomic energy  EATOM  =      6107.76944138
  Solvation  Ediel_sol  =         0.00000000
  ---------------------------------------------------
  free energy    TOTEN  =       -24.12200664 eV

  energy without entropy =      -24.11988291  energy(sigma->0) =      -24.12094478


--------------------------------------------------------------------------------------------------------




--------------------------------------- Iteration      1(   4)  ---------------------------------------


     EDDAV:  cpu time      2.4017: real time      2.4381
       DOS:  cpu time      0.0005: real time      0.0005
    --------------------------------------------
      LOOP:  cpu time      2.4022: real time      2.4386

 eigenvalue-minimisations  :  7288
 total energy-change (2. order) :-0.2376857E+00  (-0.2375403E+00)
 number of electron      44.0000000 magnetization       4.0000000
 augmentation part       44.0000000 magnetization       4.0000000

 Free energy of the ion-electron system (eV)
  ---------------------------------------------------
  alpha Z        PSCENC =       264.60919239
  Ewald energy   TEWEN  =     -4637.17866551
  -Hartree energ DENC   =     -1556.19354633
  -exchange      EXHF   =         0.00000000
  -V(xc)+E(xc)   XCENC  =       221.00441200
  PAW double counting   =      5208.65407777    -5154.59282805
  entropy T*S    EENTRO =        -0.00210974
  eigenvalues    EBANDS =      -478.42966622
  atomic energy  EATOM  =      6107.76944138
  Solvation  Ediel_sol  =         0.00000000
  ---------------------------------------------------
  free energy    TOTEN  =       -24.35969232 eV

  energy without entropy =      -24.35758257  energy(sigma->0) =      -24.35863744


--------------------------------------------------------------------------------------------------------




--------------------------------------- Iteration      1(   5)  ---------------------------------------


     EDDAV:  cpu time      2.3525: real time      2.3529
       DOS:  cpu time      0.0005: real time      0.0005
    CHARGE:  cpu time      0.2417: real time      0.2417
    MIXING:  cpu time      0.0010: real time      0.0010
    --------------------------------------------
      LOOP:  cpu time      2.5958: real time      2.5962

 eigenvalue-minimisations  :  7444
 total energy-change (2. order) :-0.2585182E-02  (-0.2584991E-02)
 number of electron      44.0000001 magnetization       0.7220624
 augmentation part       16.1985120 magnetization       0.5622876

 Broyden mixing:
  rms(total) = 0.17604E+01    rms(broyden)= 0.17598E+01
  rms(prec ) = 0.26766E+01
  weight for this iteration     100.00

 Free energy of the ion-electron system (eV)
  ---------------------------------------------------
  alpha Z        PSCENC =       264.60919239
  Ewald energy   TEWEN  =     -4637.17866551
  -Hartree energ DENC   =     -1556.19354633
  -exchange      EXHF   =         0.00000000
  -V(xc)+E(xc)   XCENC  =       221.00441200
  PAW double counting   =      5208.65407777    -5154.59282805
  entropy T*S    EENTRO =        -0.00210894
  eigenvalues    EBANDS =      -478.43225221
  atomic energy  EATOM  =      6107.76944138
  Solvation  Ediel_sol  =         0.00000000
  ---------------------------------------------------
  free energy    TOTEN  =       -24.36227750 eV

  energy without entropy =      -24.36016856  energy(sigma->0) =      -24.36122303


--------------------------------------------------------------------------------------------------------




--------------------------------------- Iteration      1(   6)  ---------------------------------------


    POTLOK:  cpu time      0.0347: real time      0.0347
    SETDIJ:  cpu time      0.4084: real time      0.4085
     EDDAV:  cpu time      2.2149: real time      2.2156
       DOS:  cpu time      0.0005: real time      0.0005
    CHARGE:  cpu time      0.2461: real time      0.2462
    MIXING:  cpu time      0.0012: real time      0.0012
    --------------------------------------------
      LOOP:  cpu time      2.9058: real time      2.9066

 eigenvalue-minimisations  :  7008
 total energy-change (2. order) : 0.1622449E+01  (-0.1541419E+01)
 number of electron      44.0000001 magnetization       0.2480791
 augmentation part       16.8335825 magnetization       0.1907829

 Broyden mixing:
  rms(total) = 0.71002E+00    rms(broyden)= 0.70951E+00
  rms(prec ) = 0.12106E+01
  weight for this iteration     100.00

 eigenvalues of (default mixing * dielectric matrix)
  average eigenvalue GAMMA=   0.8353
  0.8353

 Free energy of the ion-electron system (eV)
  ---------------------------------------------------
  alpha Z        PSCENC =       264.60919239
  Ewald energy   TEWEN  =     -4637.17866551
  -Hartree energ DENC   =     -1525.88983707
  -exchange      EXHF   =         0.00000000
  -V(xc)+E(xc)   XCENC  =       220.34407366
  PAW double counting   =      5346.20393656    -5298.00071595
  entropy T*S    EENTRO =        -0.00040562
  eigenvalues    EBANDS =      -500.59684835
  atomic energy  EATOM  =      6107.76944138
  Solvation  Ediel_sol  =         0.00000000
  ---------------------------------------------------
  free energy    TOTEN  =       -22.73982851 eV

  energy without entropy =      -22.73942289  energy(sigma->0) =      -22.73962570


--------------------------------------------------------------------------------------------------------




--------------------------------------- Iteration      1(   7)  ---------------------------------------


    POTLOK:  cpu time      0.0352: real time      0.0352
    SETDIJ:  cpu time      0.4117: real time      0.4117
     EDDAV:  cpu time      2.1835: real time      2.1838
       DOS:  cpu time      0.0005: real time      0.0005
    CHARGE:  cpu time      0.2395: real time      0.2394
    MIXING:  cpu time      0.0012: real time      0.0012
    --------------------------------------------
      LOOP:  cpu time      2.8716: real time      2.8719

 eigenvalue-minimisations  :  6980
 total energy-change (2. order) : 0.5466703E+00  (-0.2514040E+00)
 number of electron      44.0000001 magnetization      -0.0685273
 augmentation part       16.5206790 magnetization      -0.0991330

 Broyden mixing:
  rms(total) = 0.36653E+00    rms(broyden)= 0.36649E+00
  rms(prec ) = 0.44158E+00
  weight for this iteration     100.00

 eigenvalues of (default mixing * dielectric matrix)
  average eigenvalue GAMMA=   0.8949
  1.0955  0.6942

 Free energy of the ion-electron system (eV)
  ---------------------------------------------------
  alpha Z        PSCENC =       264.60919239
  Ewald energy   TEWEN  =     -4637.17866551
  -Hartree energ DENC   =     -1539.20014748
  -exchange      EXHF   =         0.00000000
  -V(xc)+E(xc)   XCENC  =       220.55073173
  PAW double counting   =      5466.08006919    -5417.26581032
  entropy T*S    EENTRO =        -0.00056590
  eigenvalues    EBANDS =      -487.55740365
  atomic energy  EATOM  =      6107.76944138
  Solvation  Ediel_sol  =         0.00000000
  ---------------------------------------------------
  free energy    TOTEN  =       -22.19315817 eV

  energy without entropy =      -22.19259227  energy(sigma->0) =      -22.19287522


--------------------------------------------------------------------------------------------------------




--------------------------------------- Iteration      1(   8)  ---------------------------------------


    POTLOK:  cpu time      0.0341: real time      0.0342
    SETDIJ:  cpu time      0.4082: real time      0.4082
     EDDAV:  cpu time      2.2100: real time      2.2106
       DOS:  cpu time      0.0005: real time      0.0005
    CHARGE:  cpu time      0.2398: real time      0.2400
    MIXING:  cpu time      0.0011: real time      0.0010
    --------------------------------------------
      LOOP:  cpu time      2.8936: real time      2.8945

 eigenvalue-minimisations  :  7148
 total energy-change (2. order) :-0.1759707E-01  (-0.4074378E-01)
 number of electron      44.0000001 magnetization      -0.0559605
 augmentation part       16.5668427 magnetization      -0.0517283

 Broyden mixing:
  rms(total) = 0.14998E+00    rms(broyden)= 0.14996E+00
  rms(prec ) = 0.19167E+00
  weight for this iteration     100.00

 eigenvalues of (default mixing * dielectric matrix)
  average eigenvalue GAMMA=   1.1656
  0.7225  0.9774  1.7970

 Free energy of the ion-electron system (eV)
  ---------------------------------------------------
  alpha Z        PSCENC =       264.60919239
  Ewald energy   TEWEN  =     -4637.17866551
  -Hartree energ DENC   =     -1535.03485643
  -exchange      EXHF   =         0.00000000
  -V(xc)+E(xc)   XCENC  =       220.37204473
  PAW double counting   =      5601.53438514    -5553.86049958
  entropy T*S    EENTRO =        -0.00132796
  eigenvalues    EBANDS =      -490.42046941
  atomic energy  EATOM  =      6107.76944138
  Solvation  Ediel_sol  =         0.00000000
  ---------------------------------------------------
  free energy    TOTEN  =       -22.21075525 eV

  energy without entropy =      -22.20942729  energy(sigma->0) =      -22.21009127


--------------------------------------------------------------------------------------------------------




--------------------------------------- Iteration      1(   9)  ---------------------------------------


    POTLOK:  cpu time      0.0333: real time      0.0334
    SETDIJ:  cpu time      0.4068: real time      0.4068
     EDDAV:  cpu time      2.2376: real time      2.2380
       DOS:  cpu time      0.0005: real time      0.0005
    CHARGE:  cpu time      0.2409: real time      0.2409
    MIXING:  cpu time      0.0011: real time      0.0011
    --------------------------------------------
      LOOP:  cpu time      2.9201: real time      2.9207

 eigenvalue-minimisations  :  7304
 total energy-change (2. order) : 0.4599380E-02  (-0.2379754E-02)
 number of electron      44.0000001 magnetization      -0.0133995
 augmentation part       16.5728001 magnetization      -0.0049950

 Broyden mixing:
  rms(total) = 0.44057E-01    rms(broyden)= 0.44048E-01
  rms(prec ) = 0.52208E-01
  weight for this iteration     100.00

 eigenvalues of (default mixing * dielectric matrix)
  average eigenvalue GAMMA=   1.1529
  2.1898  0.9187  0.7516  0.7516

 Free energy of the ion-electron system (eV)
  ---------------------------------------------------
  alpha Z        PSCENC =       264.60919239
  Ewald energy   TEWEN  =     -4637.17866551
  -Hartree energ DENC   =     -1535.99498831
  -exchange      EXHF   =         0.00000000
  -V(xc)+E(xc)   XCENC  =       220.46860310
  PAW double counting   =      5684.36120651    -5637.19473089
  entropy T*S    EENTRO =        -0.00143680
  eigenvalues    EBANDS =      -489.04477775
  atomic energy  EATOM  =      6107.76944138
  Solvation  Ediel_sol  =         0.00000000
  ---------------------------------------------------
  free energy    TOTEN  =       -22.20615587 eV

  energy without entropy =      -22.20471907  energy(sigma->0) =      -22.20543747


--------------------------------------------------------------------------------------------------------




--------------------------------------- Iteration      1(  10)  ---------------------------------------


    POTLOK:  cpu time      0.0338: real time      0.0339
    SETDIJ:  cpu time      0.4095: real time      0.4095
     EDDAV:  cpu time      2.1813: real time      2.1817
       DOS:  cpu time      0.0005: real time      0.0005
    CHARGE:  cpu time      0.2465: real time      0.2470
    MIXING:  cpu time      0.0011: real time      0.0011
    --------------------------------------------
      LOOP:  cpu time      2.8727: real time      2.8737

 eigenvalue-minimisations  :  7092
 total energy-change (2. order) :-0.1377573E-02  (-0.2574043E-03)
 number of electron      44.0000001 magnetization       0.0042700
 augmentation part       16.5665802 magnetization       0.0055016

 Broyden mixing:
  rms(total) = 0.17614E-01    rms(broyden)= 0.17613E-01
  rms(prec ) = 0.20353E-01
  weight for this iteration     100.00

 eigenvalues of (default mixing * dielectric matrix)
  average eigenvalue GAMMA=   1.1865
  2.4834  1.0266  1.0266  0.6979  0.6979

 Free energy of the ion-electron system (eV)
  ---------------------------------------------------
  alpha Z        PSCENC =       264.60919239
  Ewald energy   TEWEN  =     -4637.17866551
  -Hartree energ DENC   =     -1536.50404171
  -exchange      EXHF   =         0.00000000
  -V(xc)+E(xc)   XCENC  =       220.48680054
  PAW double counting   =      5713.08451757    -5665.95460596
  entropy T*S    EENTRO =        -0.00145901
  eigenvalues    EBANDS =      -488.51871314
  atomic energy  EATOM  =      6107.76944138
  Solvation  Ediel_sol  =         0.00000000
  ---------------------------------------------------
  free energy    TOTEN  =       -22.20753344 eV

  energy without entropy =      -22.20607443  energy(sigma->0) =      -22.20680394


--------------------------------------------------------------------------------------------------------




--------------------------------------- Iteration      1(  11)  ---------------------------------------


    POTLOK:  cpu time      0.0342: real time      0.0343
    SETDIJ:  cpu time      0.4074: real time      0.4075
     EDDAV:  cpu time      2.2450: real time      2.2461
       DOS:  cpu time      0.0005: real time      0.0005
    CHARGE:  cpu time      0.2357: real time      0.2358
    MIXING:  cpu time      0.0011: real time      0.0011
    --------------------------------------------
      LOOP:  cpu time      2.9241: real time      2.9253

 eigenvalue-minimisations  :  7360
 total energy-change (2. order) :-0.1866025E-03  (-0.3550585E-04)
 number of electron      44.0000001 magnetization       0.0027768
 augmentation part       16.5663639 magnetization       0.0029206

 Broyden mixing:
  rms(total) = 0.86353E-02    rms(broyden)= 0.86347E-02
  rms(prec ) = 0.10113E-01
  weight for this iteration     100.00

 eigenvalues of (default mixing * dielectric matrix)
  average eigenvalue GAMMA=   1.1766
  2.4530  1.3592  1.0295  0.7929  0.7929  0.6318

 Free energy of the ion-electron system (eV)
  ---------------------------------------------------
  alpha Z        PSCENC =       264.60919239
  Ewald energy   TEWEN  =     -4637.17866551
  -Hartree energ DENC   =     -1536.64358600
  -exchange      EXHF   =         0.00000000
  -V(xc)+E(xc)   XCENC  =       220.49065286
  PAW double counting   =      5721.54127855    -5674.38694471
  entropy T*S    EENTRO =        -0.00143828
  eigenvalues    EBANDS =      -488.40765073
  atomic energy  EATOM  =      6107.76944138
  Solvation  Ediel_sol  =         0.00000000
  ---------------------------------------------------
  free energy    TOTEN  =       -22.20772004 eV

  energy without entropy =      -22.20628176  energy(sigma->0) =      -22.20700090


--------------------------------------------------------------------------------------------------------




--------------------------------------- Iteration      1(  12)  ---------------------------------------


    POTLOK:  cpu time      0.0330: real time      0.0331
    SETDIJ:  cpu time      0.4046: real time      0.4046
     EDDAV:  cpu time      2.1924: real time      2.1934
       DOS:  cpu time      0.0005: real time      0.0005
    CHARGE:  cpu time      0.2354: real time      0.2354
    MIXING:  cpu time      0.0012: real time      0.0012
    --------------------------------------------
      LOOP:  cpu time      2.8670: real time      2.8681

 eigenvalue-minimisations  :  7220
 total energy-change (2. order) :-0.1100354E-04  (-0.5191333E-05)
 number of electron      44.0000001 magnetization      -0.0002143
 augmentation part       16.5665655 magnetization      -0.0004801

 Broyden mixing:
  rms(total) = 0.20814E-02    rms(broyden)= 0.20809E-02
  rms(prec ) = 0.28754E-02
  weight for this iteration     100.00

 eigenvalues of (default mixing * dielectric matrix)
  average eigenvalue GAMMA=   1.2067
  2.4837  1.7704  1.0189  1.0189  0.7635  0.7635  0.6278

 Free energy of the ion-electron system (eV)
  ---------------------------------------------------
  alpha Z        PSCENC =       264.60919239
  Ewald energy   TEWEN  =     -4637.17866551
  -Hartree energ DENC   =     -1536.73768830
  -exchange      EXHF   =         0.00000000
  -V(xc)+E(xc)   XCENC  =       220.49400981
  PAW double counting   =      5725.04118217    -5677.85975611
  entropy T*S    EENTRO =        -0.00141901
  eigenvalues    EBANDS =      -488.34402786
  atomic energy  EATOM  =      6107.76944138
  Solvation  Ediel_sol  =         0.00000000
  ---------------------------------------------------
  free energy    TOTEN  =       -22.20773105 eV

  energy without entropy =      -22.20631203  energy(sigma->0) =      -22.20702154


--------------------------------------------------------------------------------------------------------




--------------------------------------- Iteration      1(  13)  ---------------------------------------


    POTLOK:  cpu time      0.0331: real time      0.0332
    SETDIJ:  cpu time      0.4062: real time      0.4062
     EDDAV:  cpu time      2.2928: real time      2.2935
       DOS:  cpu time      0.0005: real time      0.0005
    CHARGE:  cpu time      0.2768: real time      0.2768
    MIXING:  cpu time      0.0012: real time      0.0012
    --------------------------------------------
      LOOP:  cpu time      3.0105: real time      3.0113

 eigenvalue-minimisations  :  7176
 total energy-change (2. order) :-0.1001355E-04  (-0.1313924E-05)
 number of electron      44.0000001 magnetization      -0.0001456
 augmentation part       16.5665531 magnetization      -0.0002682

 Broyden mixing:
  rms(total) = 0.84404E-03    rms(broyden)= 0.84389E-03
  rms(prec ) = 0.11595E-02
  weight for this iteration     100.00

 eigenvalues of (default mixing * dielectric matrix)
  average eigenvalue GAMMA=   1.2140
  2.5832  2.0263  1.1102  1.1102  0.7719  0.7719  0.7113  0.6272

 Free energy of the ion-electron system (eV)
  ---------------------------------------------------
  alpha Z        PSCENC =       264.60919239
  Ewald energy   TEWEN  =     -4637.17866551
  -Hartree energ DENC   =     -1536.79102228
  -exchange      EXHF   =         0.00000000
  -V(xc)+E(xc)   XCENC  =       220.49620129
  PAW double counting   =      5725.70418708    -5678.50970882
  entropy T*S    EENTRO =        -0.00141449
  eigenvalues    EBANDS =      -488.30595210
  atomic energy  EATOM  =      6107.76944138
  Solvation  Ediel_sol  =         0.00000000
  ---------------------------------------------------
  free energy    TOTEN  =       -22.20774106 eV

  energy without entropy =      -22.20632657  energy(sigma->0) =      -22.20703381


--------------------------------------------------------------------------------------------------------




--------------------------------------- Iteration      1(  14)  ---------------------------------------


    POTLOK:  cpu time      0.0334: real time      0.0335
    SETDIJ:  cpu time      0.4157: real time      0.4157
     EDDAV:  cpu time      1.8012: real time      1.8017
       DOS:  cpu time      0.0005: real time      0.0005
    CHARGE:  cpu time      0.2368: real time      0.2368
    MIXING:  cpu time      0.0011: real time      0.0011
    --------------------------------------------
      LOOP:  cpu time      2.4887: real time      2.4892

 eigenvalue-minimisations  :  5072
 total energy-change (2. order) :-0.1412314E-05  (-0.1694693E-06)
 number of electron      44.0000001 magnetization       0.0000630
 augmentation part       16.5665365 magnetization       0.0000835

 Broyden mixing:
  rms(total) = 0.33188E-03    rms(broyden)= 0.33185E-03
  rms(prec ) = 0.53652E-03
  weight for this iteration     100.00

 eigenvalues of (default mixing * dielectric matrix)
  average eigenvalue GAMMA=   1.2248
  2.5893  2.0863  1.2671  1.0965  1.0965  0.7838  0.7838  0.6959  0.6238

 Free energy of the ion-electron system (eV)
  ---------------------------------------------------
  alpha Z        PSCENC =       264.60919239
  Ewald energy   TEWEN  =     -4637.17866551
  -Hartree energ DENC   =     -1536.80737991
  -exchange      EXHF   =         0.00000000
  -V(xc)+E(xc)   XCENC  =       220.49684019
  PAW double counting   =      5725.65509960    -5678.45682317
  entropy T*S    EENTRO =        -0.00141488
  eigenvalues    EBANDS =      -488.29403257
  atomic energy  EATOM  =      6107.76944138
  Solvation  Ediel_sol  =         0.00000000
  ---------------------------------------------------
  free energy    TOTEN  =       -22.20774247 eV

  energy without entropy =      -22.20632759  energy(sigma->0) =      -22.20703503


--------------------------------------------------------------------------------------------------------




--------------------------------------- Iteration      1(  15)  ---------------------------------------


    POTLOK:  cpu time      0.0332: real time      0.0333
    SETDIJ:  cpu time      0.4072: real time      0.4072
     EDDAV:  cpu time      1.7322: real time      1.7324
       DOS:  cpu time      0.0005: real time      0.0005
    --------------------------------------------
      LOOP:  cpu time      2.1731: real time      2.1735

 eigenvalue-minimisations  :  4292
 total energy-change (2. order) :-0.2189745E-06  (-0.5473095E-07)
 number of electron      44.0000001 magnetization       0.0000630
 augmentation part       16.5665365 magnetization       0.0000835

 Free energy of the ion-electron system (eV)
  ---------------------------------------------------
  alpha Z        PSCENC =       264.60919239
  Ewald energy   TEWEN  =     -4637.17866551
  -Hartree energ DENC   =     -1536.81384398
  -exchange      EXHF   =         0.00000000
  -V(xc)+E(xc)   XCENC  =       220.49705508
  PAW double counting   =      5725.46438765    -5678.26485262
  entropy T*S    EENTRO =        -0.00141632
  eigenvalues    EBANDS =      -488.28904077
  atomic energy  EATOM  =      6107.76944138
  Solvation  Ediel_sol  =         0.00000000
  ---------------------------------------------------
  free energy    TOTEN  =       -22.20774269 eV

  energy without entropy =      -22.20632637  energy(sigma->0) =      -22.20703453


--------------------------------------------------------------------------------------------------------




 average (electrostatic) potential at core
  the test charge radii are     1.0504  0.7215
  (the norm of the test charge is              1.0000)
       1 -77.8256       2 -77.8256       3 -70.0306       4 -70.0306
 
 
 
 E-fermi :   6.9034     XC(G=0): -11.8670     alpha+bet :-12.7273

 val. band max:        6.8982825544   @ k =   0.5000   0.2500   0.0000
 cond. band min:       6.9402373519   @ k =   0.5000   0.5000   0.3333
 fundamental gap:      0.0419547975
 Fermi energy:         6.9034299737

 spin component 1

 k-point     1 :       0.0000    0.0000    0.0000
  band No.  band energies     occupation 
      1     -43.9609      1.00000
      2     -43.9609      1.00000
      3     -43.9537      1.00000
      4     -43.9046      1.00000
      5     -43.1251      1.00000
      6     -43.1251      1.00000
      7     -13.3999      1.00000
      8     -12.1765      1.00000
      9      -1.9393      1.00000
     10      -0.0005      1.00000
     11      -0.0005      1.00000
     12       2.6115      1.00000
     13       2.8145      1.00000
     14       2.8145      1.00000
     15       3.1522      1.00000
     16       3.3468      1.00000
     17       3.6097      1.00000
     18       4.9132      1.00000
     19       4.9132      1.00000
     20       4.9685      1.00000
     21       5.1857      1.00000
     22       5.8393      1.00000
     23       8.7952      0.00000
     24       8.7952      0.00000
     25       9.0083      0.00000
     26      12.3683      0.00000
     27      15.2284      0.00000
     28      21.4433      0.00000

 k-point     2 :       0.1250    0.0000    0.0000
  band No.  band energies     occupation 
      1     -43.9736      1.00000
      2     -43.9603      1.00000
      3     -43.9506      1.00000
      4     -43.9052      1.00000
      5     -43.1347      1.00000
      6     -43.1244      1.00000
      7     -13.3211      1.00000
      8     -12.2093      1.00000
      9      -1.7748      1.00000
     10       0.0111      1.00000
     11       0.0438      1.00000
     12       1.8694      1.00000
     13       2.6709      1.00000
     14       2.8659      1.00000
     15       3.2385      1.00000
     16       3.7267      1.00000
     17       3.7522      1.00000
     18       4.9060      1.00000
     19       4.9226      1.00000
     20       4.9271      1.00000
     21       5.2669      1.00000
     22       5.8696      1.00000
     23       8.5824      0.00000
     24       8.7323      0.00000
     25       9.3773      0.00000
     26      12.9332      0.00000
     27      14.9091      0.00000
     28      19.5369      0.00000

 k-point     3 :       0.2500    0.0000    0.0000
  band No.  band energies     occupation 
      1     -44.0038      1.00000
      2     -43.9586      1.00000
      3     -43.9423      1.00000
      4     -43.9072      1.00000
      5     -43.1575      1.00000
      6     -43.1223      1.00000
      7     -13.1256      1.00000
      8     -12.2861      1.00000
      9      -1.3581      1.00000
     10       0.1248      1.00000
     11       0.1554      1.00000
     12       0.8139      1.00000
     13       2.3727      1.00000
     14       2.7261      1.00000
     15       3.1188      1.00000
     16       4.0125      1.00000
     17       4.5245      1.00000
     18       4.7226      1.00000
     19       4.8848      1.00000
     20       5.1407      1.00000
     21       5.5162      1.00000
     22       5.9321      1.00000
     23       8.2540      0.00000
     24       8.5843      0.00000
     25      10.2222      0.00000
     26      13.9936      0.00000
     27      14.2716      0.00000
     28      17.1216      0.00000

 k-point     4 :       0.3750    0.0000    0.0000
  band No.  band energies     occupation 
      1     -44.0338      1.00000
      2     -43.9569      1.00000
      3     -43.9315      1.00000
      4     -43.9116      1.00000
      5     -43.1802      1.00000
      6     -43.1203      1.00000
      7     -12.9215      1.00000
      8     -12.3613      1.00000
      9      -0.9062      1.00000
     10      -0.0062      1.00000
     11       0.2729      1.00000
     12       0.4439      1.00000
     13       1.9475      1.00000
     14       2.1180      1.00000
     15       3.4435      1.00000
     16       4.2877      1.00000
     17       4.5174      1.00000
     18       4.8574      1.00000
     19       5.0392      1.00000
     20       5.3994      1.00000
     21       5.7429      1.00000
     22       6.2592      1.00000
     23       8.1046      0.00000
     24       8.4376      0.00000
     25      11.0721      0.00000
     26      12.9887      0.00000
     27      14.9850      0.00000
     28      15.9507      0.00000

 k-point     5 :       0.5000    0.0000    0.0000
  band No.  band energies     occupation 
      1     -44.0463      1.00000
      2     -43.9563      1.00000
      3     -43.9240      1.00000
      4     -43.9164      1.00000
      5     -43.1896      1.00000
      6     -43.1195      1.00000
      7     -12.8345      1.00000
      8     -12.3928      1.00000
      9      -0.6937      1.00000
     10      -0.3291      1.00000
     11       0.3234      1.00000
     12       0.8087      1.00000
     13       1.3948      1.00000
     14       2.0210      1.00000
     15       3.6185      1.00000
     16       4.4040      1.00000
     17       4.4345      1.00000
     18       4.8439      1.00000
     19       5.0900      1.00000
     20       5.4882      1.00000
     21       5.8293      1.00000
     22       6.6142      1.00000
     23       8.0916      0.00000
     24       8.3762      0.00000
     25      11.3282      0.00000
     26      13.0253      0.00000
     27      13.6601      0.00000
     28      17.2943      0.00000

 k-point     6 :       0.1250    0.1250    0.0000
  band No.  band energies     occupation 
      1     -43.9749      1.00000
      2     -43.9708      1.00000
      3     -43.9476      1.00000
      4     -43.9056      1.00000
      5     -43.1348      1.00000
      6     -43.1329      1.00000
      7     -13.2421      1.00000
      8     -12.2412      1.00000
      9      -1.6059      1.00000
     10      -0.0622      1.00000
     11       0.1742      1.00000
     12       1.8151      1.00000
     13       1.8510      1.00000
     14       3.2076      1.00000
     15       3.2880      1.00000
     16       3.8718      1.00000
     17       3.9514      1.00000
     18       4.6889      1.00000
     19       4.9475      1.00000
     20       5.0814      1.00000
     21       5.2471      1.00000
     22       5.9150      1.00000
     23       8.3673      0.00000
     24       8.6849      0.00000
     25       9.7293      0.00000
     26      13.4682      0.00000
     27      14.6937      0.00000
     28      19.5432      0.00000

 k-point     7 :       0.2500    0.1250    0.0000
  band No.  band energies     occupation 
      1     -44.0034      1.00000
      2     -43.9707      1.00000
      3     -43.9396      1.00000
      4     -43.9073      1.00000
      5     -43.1567      1.00000
      6     -43.1316      1.00000
      7     -13.0475      1.00000
      8     -12.3160      1.00000
      9      -1.1758      1.00000
     10      -0.0447      1.00000
     11       0.3818      1.00000
     12       0.7820      1.00000
     13       1.7160      1.00000
     14       2.8261      1.00000
     15       3.5038      1.00000
     16       4.1426      1.00000
     17       4.5266      1.00000
     18       4.6186      1.00000
     19       4.8211      1.00000
     20       5.2204      1.00000
     21       5.4815      1.00000
     22       5.9523      1.00000
     23       7.9825      0.00000
     24       8.6059      0.00000
     25      10.5279      0.00000
     26      14.0129      0.00000
     27      14.7565      0.00000
     28      17.3502      0.00000

 k-point     8 :       0.3750    0.1250    0.0000
  band No.  band energies     occupation 
      1     -44.0334      1.00000
      2     -43.9690      1.00000
      3     -43.9294      1.00000
      4     -43.9111      1.00000
      5     -43.1793      1.00000
      6     -43.1295      1.00000
      7     -12.8441      1.00000
      8     -12.3912      1.00000
      9      -0.7082      1.00000
     10      -0.0305      1.00000
     11       0.0849      1.00000
     12       0.6685      1.00000
     13       1.5789      1.00000
     14       2.1264      1.00000
     15       3.7388      1.00000
     16       4.3592      1.00000
     17       4.5626      1.00000
     18       4.6502      1.00000
[...]
      9      -0.4709      1.00000
     10      -0.4709      1.00000
     11       1.0784      1.00000
     12       1.0784      1.00000
     13       1.3024      1.00000
     14       1.3024      1.00000
     15       4.2557      1.00000
     16       4.2557      1.00000
     17       4.4254      1.00000
     18       4.4254      1.00000
     19       5.3174      1.00000
     20       5.3174      1.00000
     21       5.5942      1.00000
     22       5.5942      1.00000
     23       7.7329      0.00000
     24       7.7329      0.00000
     25      12.4284      0.00000
     26      12.4284      0.00000
     27      18.6977      0.00000
     28      18.6977      0.00000

 k-point    56 :       0.3750    0.2500    0.5000
  band No.  band energies     occupation 
      1     -44.0323      1.00000
      2     -43.9995      1.00000
      3     -43.9170      1.00000
      4     -43.9155      1.00000
      5     -43.1768      1.00000
      6     -43.1521      1.00000
      7     -12.6823      1.00000
      8     -12.4297      1.00000
      9      -0.4055      1.00000
     10      -0.2702      1.00000
     11       0.2937      1.00000
     12       1.0324      1.00000
     13       1.3935      1.00000
     14       1.6912      1.00000
     15       4.0484      1.00000
     16       4.2424      1.00000
     17       4.4651      1.00000
     18       4.5723      1.00000
     19       5.0974      1.00000
     20       5.2751      1.00000
     21       5.7237      1.00000
     22       6.2029      1.00000
     23       7.6791      0.00000
     24       8.0373      0.00000
     25      12.0660      0.00000
     26      12.9420      0.00000
     27      16.9504      0.00000
     28      17.8344      0.00000

 k-point    57 :       0.5000    0.2500    0.5000
  band No.  band energies     occupation 
      1     -44.0448      1.00000
      2     -43.9984      1.00000
      3     -43.9162      1.00000
      4     -43.9140      1.00000
      5     -43.1861      1.00000
      6     -43.1512      1.00000
      7     -12.7050      1.00000
      8     -12.3449      1.00000
      9      -0.2635      1.00000
     10      -0.1862      1.00000
     11      -0.0314      1.00000
     12       0.7675      1.00000
     13       1.5479      1.00000
     14       1.9381      1.00000
     15       3.9277      1.00000
     16       4.1412      1.00000
     17       4.5888      1.00000
     18       4.7360      1.00000
     19       4.8728      1.00000
     20       5.0840      1.00000
     21       5.7844      1.00000
     22       6.5771      1.00000
     23       7.9778      0.00000
     24       8.1375      0.00000
     25      11.6141      0.00000
     26      13.2374      0.00000
     27      16.1870      0.00000
     28      17.3107      0.00000

 k-point    58 :       0.3750    0.3750    0.5000
  band No.  band energies     occupation 
      1     -44.0294      1.00000
      2     -44.0294      1.00000
      3     -43.9135      1.00000
      4     -43.9135      1.00000
      5     -43.1745      1.00000
      6     -43.1745      1.00000
      7     -12.4919      1.00000
      8     -12.4919      1.00000
      9      -0.0960      1.00000
     10      -0.0960      1.00000
     11       0.6025      1.00000
     12       0.6025      1.00000
     13       1.1462      1.00000
     14       1.1462      1.00000
     15       4.0204      1.00000
     16       4.0204      1.00000
     17       4.7412      1.00000
     18       4.7412      1.00000
     19       5.2589      1.00000
     20       5.2589      1.00000
     21       6.3289      1.00000
     22       6.3289      1.00000
     23       7.7595      0.00000
     24       7.7595      0.00000
     25      12.3836      0.00000
     26      12.3836      0.00000
     27      18.3106      0.00000
     28      18.3106      0.00000

 k-point    59 :       0.5000    0.3750    0.5000
  band No.  band energies     occupation 
      1     -44.0418      1.00000
      2     -44.0282      1.00000
      3     -43.9127      1.00000
      4     -43.9121      1.00000
      5     -43.1838      1.00000
      6     -43.1736      1.00000
      7     -12.5182      1.00000
      8     -12.4112      1.00000
      9       0.0138      1.00000
     10       0.2511      1.00000
     11       0.2867      1.00000
     12       0.5715      1.00000
     13       0.7937      1.00000
     14       1.2605      1.00000
     15       3.9218      1.00000
     16       3.9277      1.00000
     17       4.9059      1.00000
     18       4.9322      1.00000
     19       5.0831      1.00000
     20       5.2508      1.00000
     21       6.4085      1.00000
     22       6.7703      0.99992
     23       7.7475      0.00000
     24       7.7643      0.00000
     25      11.9728      0.00000
     26      12.5466      0.00000
     27      17.7446      0.00000
     28      18.2643      0.00000

 k-point    60 :       0.5000    0.5000    0.5000
  band No.  band energies     occupation 
      1     -44.0405      1.00000
      2     -44.0405      1.00000
      3     -43.9113      1.00000
      4     -43.9113      1.00000
      5     -43.1828      1.00000
      6     -43.1828      1.00000
      7     -12.4383      1.00000
      8     -12.4383      1.00000
      9       0.4365      1.00000
     10       0.4365      1.00000
     11       0.4952      1.00000
     12       0.4952      1.00000
     13       0.5639      1.00000
     14       0.5639      1.00000
     15       3.8334      1.00000
     16       3.8334      1.00000
     17       4.9609      1.00000
     18       4.9609      1.00000
     19       5.3284      1.00000
     20       5.3284      1.00000
     21       6.8391      0.96564
     22       6.8391      0.96564
     23       7.6264      0.00000
     24       7.6264      0.00000
     25      12.1459      0.00000
     26      12.1459      0.00000
     27      18.5703      0.00000
     28      18.5703      0.00000


--------------------------------------------------------------------------------------------------------


 soft charge-density along one line, spin component            1
         0         1         2         3         4         5         6         7         8         9
 total charge-density along one line
 
 soft charge-density along one line, spin component            2
         0         1         2         3         4         5         6         7         8         9
 total charge-density along one line
 
 pseudopotential strength for first ion, spin component:            1
-38.790  -0.000  -0.000   9.102   0.000   0.000   0.000  -0.000
 -0.000 -39.201  -0.000   0.000   9.335   0.000   0.000  -0.000
 -0.000  -0.000 -39.228   0.000   0.000   9.353  -0.000   0.000
  9.102   0.000   0.000   7.646  -0.000  -0.000  -0.000   0.000
  0.000   9.335   0.000  -0.000   7.591  -0.000  -0.000   0.000
  0.000   0.000   9.353  -0.000  -0.000   7.589  -0.000  -0.000
  0.000   0.000  -0.000  -0.000  -0.000  -0.000  -3.751  -0.000
 -0.000  -0.000   0.000   0.000   0.000  -0.000  -0.000  -3.730
  0.000  -0.000  -0.000  -0.000   0.000   0.000   0.000   0.000
  0.000   0.000  -0.000  -0.000  -0.000   0.000  -0.000   0.000
  0.000  -0.000   0.000  -0.000   0.000  -0.000  -0.000   0.000
  0.000   0.000  -0.000  -0.000  -0.000  -0.000  -3.563  -0.000
 -0.000  -0.000   0.000   0.000   0.000  -0.000  -0.000  -3.539
  0.000  -0.000  -0.000  -0.000   0.000   0.000   0.000   0.000
  0.000   0.000  -0.000  -0.000  -0.000   0.000  -0.000   0.000
  0.000  -0.000   0.000  -0.000   0.000  -0.000  -0.000   0.000
  0.000   0.000  -0.000   0.000   0.000  -0.000   0.000   0.000
  0.000   0.000  -0.000   0.000   0.000  -0.000   0.000   0.000
 pseudopotential strength for first ion, spin component:            2
-38.790  -0.000  -0.000   9.102   0.000   0.000   0.000  -0.000
 -0.000 -39.201  -0.000   0.000   9.335   0.000   0.000  -0.000
 -0.000  -0.000 -39.228   0.000   0.000   9.353   0.000   0.000
  9.102   0.000   0.000   7.646  -0.000  -0.000  -0.000   0.000
  0.000   9.335   0.000  -0.000   7.591  -0.000  -0.000   0.000
  0.000   0.000   9.353  -0.000  -0.000   7.589  -0.000  -0.000
  0.000   0.000   0.000  -0.000  -0.000  -0.000  -3.751  -0.000
 -0.000  -0.000   0.000   0.000   0.000  -0.000  -0.000  -3.730
  0.000  -0.000  -0.000  -0.000   0.000   0.000   0.000   0.000
  0.000   0.000  -0.000  -0.000  -0.000   0.000  -0.000   0.000
  0.000  -0.000   0.000  -0.000   0.000  -0.000  -0.000   0.000
  0.000   0.000   0.000  -0.000  -0.000  -0.000  -3.563  -0.000
 -0.000  -0.000   0.000   0.000   0.000  -0.000  -0.000  -3.539
  0.000  -0.000  -0.000  -0.000   0.000   0.000   0.000   0.000
  0.000   0.000  -0.000  -0.000  -0.000   0.000  -0.000   0.000
  0.000  -0.000   0.000  -0.000   0.000  -0.000  -0.000   0.000
  0.000   0.000  -0.000   0.000   0.000  -0.000   0.000   0.000
  0.000   0.000  -0.000   0.000   0.000  -0.000   0.000   0.000
 total augmentation occupancy for first ion, spin component:            1
  1.998   0.000   0.000  -0.011  -0.000  -0.000   0.000   0.000   0.000   0.000   0.000   0.000   0.000   0.000   0.000   0.000
  0.000   1.998   0.000  -0.000  -0.020  -0.000   0.000   0.000   0.000   0.000   0.000   0.000   0.000   0.000   0.000   0.000
  0.000   0.000   1.998  -0.000  -0.000  -0.021   0.000   0.000   0.000   0.000   0.000   0.000   0.000   0.000   0.000   0.000
 -0.011  -0.000  -0.000   0.045   0.000   0.000   0.000   0.000   0.000   0.000   0.000   0.000   0.000   0.000   0.000   0.000
 -0.000  -0.020  -0.000   0.000   0.134   0.000   0.000   0.000   0.000   0.000   0.000   0.000   0.000   0.000   0.000   0.000
 -0.000  -0.000  -0.021   0.000   0.000   0.159   0.000   0.000   0.000   0.000   0.000   0.000   0.000   0.000   0.000   0.000
  0.000   0.000   0.000   0.000   0.000   0.000   2.215   0.000  -0.000   0.000  -0.000  -0.322  -0.000   0.000  -0.000   0.000
  0.000   0.000   0.000   0.000   0.000   0.000   0.000   2.150   0.000   0.000  -0.000  -0.000  -0.276   0.000  -0.000   0.000
  0.000   0.000   0.000   0.000   0.000   0.000  -0.000   0.000   2.376   0.000   0.169   0.000   0.000  -0.545  -0.000  -0.115
  0.000   0.000   0.000   0.000   0.000   0.000   0.000   0.000   0.000   4.850   0.000  -0.000  -0.000  -0.000  -2.780  -0.000
  0.000   0.000   0.000   0.000   0.000   0.000  -0.000  -0.000   0.169   0.000   3.102   0.000   0.000  -0.110  -0.000  -1.166
  0.000   0.000   0.000   0.000   0.000   0.000  -0.322  -0.000   0.000  -0.000   0.000   0.374   0.000  -0.000   0.000  -0.000
  0.000   0.000   0.000   0.000   0.000   0.000  -0.000  -0.276   0.000  -0.000   0.000   0.000   0.370   0.000   0.000  -0.000
  0.000   0.000   0.000   0.000   0.000   0.000   0.000   0.000  -0.545  -0.000  -0.110  -0.000   0.000   0.670   0.000  -0.017
  0.000   0.000   0.000   0.000   0.000   0.000  -0.000  -0.000  -0.000  -2.780  -0.000   0.000   0.000   0.000   1.853   0.000
  0.000   0.000   0.000   0.000   0.000   0.000   0.000   0.000  -0.115  -0.000  -1.166  -0.000  -0.000  -0.017   0.000   1.088
  0.000   0.000   0.000   0.000   0.000   0.000  -0.000  -0.000   0.070   0.000   0.420   0.000   0.000  -0.273  -0.000  -0.848
  0.000   0.000   0.000   0.000   0.000   0.000  -0.000  -0.000   0.022  -0.000  -0.001  -0.000  -0.000   0.023   0.000   0.090
 total augmentation occupancy for first ion, spin component:            2
 -0.000  -0.000  -0.000  -0.000  -0.000  -0.000   0.000   0.000   0.000   0.000   0.000   0.000   0.000   0.000   0.000   0.000
 -0.000  -0.000  -0.000  -0.000  -0.000  -0.000   0.000   0.000   0.000   0.000   0.000   0.000   0.000   0.000   0.000   0.000
 -0.000  -0.000  -0.000  -0.000  -0.000  -0.000   0.000   0.000   0.000   0.000   0.000   0.000   0.000   0.000   0.000   0.000
 -0.000  -0.000  -0.000  -0.000  -0.000  -0.000   0.000   0.000   0.000   0.000   0.000   0.000   0.000   0.000   0.000   0.000
 -0.000  -0.000  -0.000  -0.000   0.000   0.000   0.000   0.000   0.000   0.000   0.000   0.000   0.000   0.000   0.000   0.000
 -0.000  -0.000  -0.000  -0.000   0.000   0.000   0.000   0.000   0.000   0.000   0.000   0.000   0.000   0.000   0.000   0.000
  0.000   0.000   0.000   0.000   0.000   0.000  -0.000  -0.000  -0.000  -0.000  -0.000   0.000   0.000   0.000   0.000  -0.000
  0.000   0.000   0.000   0.000   0.000   0.000  -0.000  -0.000  -0.000  -0.000  -0.000   0.000   0.000   0.000   0.000  -0.000
  0.000   0.000   0.000   0.000   0.000   0.000  -0.000  -0.000   0.000   0.000   0.000   0.000   0.000  -0.000  -0.000   0.000
  0.000   0.000   0.000   0.000   0.000   0.000  -0.000  -0.000   0.000   0.000  -0.000   0.000   0.000  -0.000  -0.000   0.000
  0.000   0.000   0.000   0.000   0.000   0.000  -0.000  -0.000   0.000  -0.000  -0.000  -0.000  -0.000   0.000   0.000   0.000
  0.000   0.000   0.000   0.000   0.000   0.000   0.000   0.000   0.000   0.000  -0.000   0.000   0.000  -0.000   0.000  -0.000
  0.000   0.000   0.000   0.000   0.000   0.000   0.000   0.000   0.000   0.000  -0.000   0.000   0.000  -0.000   0.000  -0.000
  0.000   0.000   0.000   0.000   0.000   0.000   0.000   0.000  -0.000  -0.000   0.000  -0.000  -0.000   0.000   0.000  -0.000
  0.000   0.000   0.000   0.000   0.000   0.000   0.000   0.000  -0.000  -0.000   0.000   0.000   0.000   0.000   0.000   0.000
  0.000   0.000   0.000   0.000   0.000   0.000  -0.000  -0.000   0.000   0.000   0.000  -0.000  -0.000  -0.000   0.000   0.000
  0.000   0.000   0.000   0.000   0.000   0.000  -0.000  -0.000   0.000   0.000   0.000  -0.000  -0.000   0.000   0.000   0.000
  0.000   0.000   0.000   0.000   0.000   0.000   0.000   0.000  -0.000  -0.000  -0.000   0.000   0.000  -0.000  -0.000  -0.000


------------------------ aborting loop because EDIFF is reached ----------------------------------------





 total charge

# of ion       s       p       d       tot
------------------------------------------
    1        0.300   6.191   7.924  14.414
    2        0.300   6.191   7.924  14.414
    3        1.572   3.394   0.000   4.966
    4        1.572   3.394   0.000   4.966
--------------------------------------------------
tot          3.744  19.169  15.847  38.761



 magnetization (x)

# of ion       s       p       d       tot
------------------------------------------
    1       -0.000  -0.000   0.000   0.000
    2       -0.000  -0.000   0.000   0.000
    3        0.000   0.000   0.000   0.000
    4        0.000   0.000   0.000   0.000
--------------------------------------------------
tot          0.000   0.000   0.000   0.000
 
    CHARGE:  cpu time      0.2442: real time      0.2442
    FORLOC:  cpu time      0.0010: real time      0.0010
    FORNL :  cpu time      0.3804: real time      0.3805
    FORCOR:  cpu time      0.4529: real time      0.4529
    FORHAR:  cpu time      0.0039: real time      0.0039
    MIXING:  cpu time      0.0011: real time      0.0011
    OFIELD:  cpu time      0.0000: real time      0.0000

 ---------------------------------------------------------------------------------------------

         DFTD3 V3.0 Rev 1        
 DF pbe       
 parameters
 k1-k3        =   16.0000    1.3333   -4.0000
 Edisp (eV)   -1.24372

 E6    (eV) :    -0.7446
 E8    (eV) :    -0.4991
 % E8        : 40.13
    FORVDW:  cpu time      0.0084: real time      0.0084

 VOLUME and BASIS-vectors are now :
 -----------------------------------------------------------------------------
  energy-cutoff  :      450.00
  volume of cell :       50.08
      direct lattice vectors                 reciprocal lattice vectors
     3.053604110  0.000000000  0.000000000     0.327481875 -0.000000000  0.000000000
     0.000000000  3.053604110  0.000000000     0.000000000  0.327481875  0.000000000
     0.000000000  0.000000000  5.371256790    -0.000000000 -0.000000000  0.186176167

  length of vectors
     3.053604110  3.053604110  5.371256790     0.327481875  0.327481875  0.186176167


 FORCES acting on ions
    electron-ion (+dipol)            ewald-force                    non-local-force                 convergence-correction
 -----------------------------------------------------------------------------------------------
   0.615E-12 -.717E-14 -.685E-11   0.739E-14 -.375E-14 0.568E-13   -.381E-24 0.000E+00 0.000E+00   -.331E-13 -.262E-13 0.226E-12
   -.220E-13 0.628E-12 -.211E-12   0.256E-14 0.123E-13 -.568E-13   -.211E-24 0.000E+00 0.000E+00   0.365E-13 -.179E-13 -.643E-13
   0.318E-13 0.521E-12 -.184E-11   0.312E-15 0.187E-13 0.119E-12   -.405E-17 0.000E+00 -.250E-15   0.928E-14 -.832E-14 -.125E-13
   -.545E-13 -.633E-12 0.191E-11   -.648E-14 -.261E-13 -.119E-12   0.341E-18 0.000E+00 0.139E-15   0.632E-14 0.629E-14 0.425E-13
 -----------------------------------------------------------------------------------------------
   0.570E-12 0.509E-12 -.700E-11   0.379E-14 0.117E-14 0.128E-18   -.371E-17 0.000E+00 -.111E-15   0.189E-13 -.462E-13 0.192E-12
 
 
 POSITION                                       TOTAL-FORCE (eV/Angst)
 -----------------------------------------------------------------------------------
      1.52680      0.00000      2.68563        -0.000000      0.000000     -0.000000
      0.00000      1.52680      0.00000         0.000000      0.000000     -0.000000
      0.00000      0.00000      4.02844        -0.000000     -0.000000      0.000000
      0.00000      0.00000      1.34281         0.000000      0.000000      0.000000
 -----------------------------------------------------------------------------------
    total drift:                                0.000000      0.000000     -0.000000


--------------------------------------------------------------------------------------------------------



  FREE ENERGIE OF THE ION-ELECTRON SYSTEM (eV)
  ---------------------------------------------------
  free  energy   TOTEN  =       -23.45146633 eV

  energy  without entropy=      -23.45005001  energy(sigma->0) =      -23.45075817
 


--------------------------------------------------------------------------------------------------------


    POTLOK:  cpu time      0.4435: real time      0.4436


--------------------------------------------------------------------------------------------------------


     LOOP+:  cpu time     42.6112: real time     42.8165
    4ORBIT:  cpu time      0.0000: real time      0.0000



 total charge

# of ion       s       p       d       tot
------------------------------------------
    1        0.300   6.191   7.924  14.414
    2        0.300   6.191   7.924  14.414
    3        1.572   3.394   0.000   4.966
    4        1.572   3.394   0.000   4.966
--------------------------------------------------
tot          3.744  19.169  15.847  38.761



 magnetization (x)

# of ion       s       p       d       tot
------------------------------------------
    1       -0.000  -0.000   0.000   0.000
    2       -0.000  -0.000   0.000   0.000
    3        0.000   0.000   0.000   0.000
    4        0.000   0.000   0.000   0.000
--------------------------------------------------
tot          0.000   0.000   0.000   0.000
 

 total amount of memory used by VASP MPI-rank0    77324. kBytes
=======================================================================

   base      :      30000. kBytes
   nonl-proj :      19147. kBytes
   fftplans  :       6896. kBytes
   grid      :       5621. kBytes
   one-center:        124. kBytes
   wavefun   :      15536. kBytes
 
  
  
 General timing and accounting informations for this job:
 ========================================================
  
                  Total CPU time used (sec):       44.263
                            User time (sec):       43.328
                          System time (sec):        0.935
                         Elapsed time (sec):       44.955
  
                   Maximum memory used (kb):      369844.
                   Average memory used (kb):          N/A
  
                          Minor page faults:       356417
                          Major page faults:            0
                 Voluntary context switches:          278
