146
Lattice="9.531709292017604 0.0 0.0 0.0 12.847751714415933 0.0 0.0 0.0 32.10284432209217" Properties=species:S:1:pos:R:3:move_mask:L:1:momenta:R:3 adsorbate_info="_JSON {\"site\": {\"coordinates\": [2.3829221218333156, 8.634333517672314, 12.501138829425297], \"connectivity\": 2, \"topology\": [32, 98], \"n_vector\": [-0.0058814726232154085, -0.11658025851576274, 0.99316385939289], \"h_vector\": [-0.7864202638234219, 0.5984842135037653, 0.15283917964540022], \"site_formula\": {\"O\": 1, \"Pd\": 1}}, \"smiles\": \"Cl[C]=O\", \"mdf\": 2.0970705725085113, \"adsorbate_formula\": \"CO\"}" mace_E=-754.5013552435477 converged=T n_steps=200 d_min=3.2646208460366957 site_type=atop dE_rel_meV=0 original_idx=32 rank=5 E_MACE=-756.5738866595816 pbc="T T T"
O        3.16855445       4.39047056      11.19756609  T       0.00000000       0.00000000       0.00000000
O        1.59532893       0.27418754      12.44145572  T       0.00000000       0.00000000       0.00000000
O        1.58220440       2.73638271      12.81829947  T       0.00000000       0.00000000       0.00000000
O        9.54698603       4.97216627      13.63815400  T       0.00000000       0.00000000       0.00000000
O       -0.02101614       4.36846026      11.19610429  T       0.00000000       0.00000000       0.00000000
O        1.58861822      10.00826748       2.73351527  F       0.00000000       0.00000000       0.00000000
O        1.58861822      12.47529802       2.73351527  F       0.00000000       0.00000000       0.00000000
O        4.76584344       2.83874884       6.08591509  F       0.00000000       0.00000000       0.00000000
O        0.00000000       8.02984482       1.50000000  F       0.00000000       0.00000000       0.00000000
O        1.58861107       6.79705424       6.08592811  F       0.00000000       0.00000000       0.00000000
O        9.53961060       1.27970325       7.93822440  T       0.00000000       0.00000000       0.00000000
O        1.58861150       9.26263623       6.08591827  F       0.00000000       0.00000000       0.00000000
O        4.76583598       0.37317881       6.08593111  F       0.00000000       0.00000000       0.00000000
O        6.33827591      10.83037629      11.19773312  T       0.00000000       0.00000000       0.00000000
O        3.17723028       4.81790423       7.22598268  F       0.00000000       0.00000000       0.00000000
O        6.35447286       1.60596896       1.50000000  F       0.00000000       0.00000000       0.00000000
O        7.94309377       2.83875127       6.08591528  F       0.00000000       0.00000000       0.00000000
O        6.35447101       4.81790868       7.22598243  F       0.00000000       0.00000000       0.00000000
O        6.35447286       4.81790689       4.71193793  F       0.00000000       0.00000000       0.00000000
O        7.94310469       3.47974938       8.91355160  T       0.00000000       0.00000000       0.00000000
O        7.94289347       5.93783210       9.56512923  T       0.00000000       0.00000000       0.00000000
O        0.00000338      11.24178289       7.22597220  F       0.00000000       0.00000000       0.00000000
O        1.58737452       5.92932120       9.42695365  T       0.00000000       0.00000000       0.00000000
O        1.58337249       3.46910873       8.89911003  T       0.00000000       0.00000000       0.00000000
O        0.00000000       4.81790689       4.71193793  F       0.00000000       0.00000000       0.00000000
O        1.58832608      12.36613638       9.50796451  T       0.00000000       0.00000000       0.00000000
O       -0.00656174       8.26667755      10.36004167  T       0.00000000       0.00000000       0.00000000
O       -0.01014907      10.84159671      11.19260053  T       0.00000000       0.00000000       0.00000000
O        4.76585465       6.05142216       2.73351527  F       0.00000000       0.00000000       0.00000000
O        9.52426301       7.71436073       7.93679788  T       0.00000000       0.00000000       0.00000000
O        3.17723643       1.60596896       3.96703054  F       0.00000000       0.00000000       0.00000000
O        9.51425255      11.28096721      13.64573750  T       0.00000000       0.00000000       0.00000000
O        1.54673349       9.08626897      12.76319268  T       0.00000000       0.00000000       0.00000000
O        4.76585465       3.58439162       2.73351527  F       0.00000000       0.00000000       0.00000000
O        1.54282322       6.67550520      11.91862442  T       0.00000000       0.00000000       0.00000000
O        3.17723643       1.60596896       1.50000000  F       0.00000000       0.00000000       0.00000000
O        0.00000000       8.02984482       3.96703054  F       0.00000000       0.00000000       0.00000000
O        1.58410461       9.91898060       8.92145776  T       0.00000000       0.00000000       0.00000000
O        0.00000000      11.24178275       4.71193793  F       0.00000000       0.00000000       0.00000000
O        1.58861822       3.58439162       2.73351527  F       0.00000000       0.00000000       0.00000000
O        1.58861822       6.05142216       2.73351527  F       0.00000000       0.00000000       0.00000000
O        0.00000000       1.60596896       3.96703054  F       0.00000000       0.00000000       0.00000000
O        0.00000000       1.60596896       1.50000000  F       0.00000000       0.00000000       0.00000000
O        1.58861510       0.37317604       6.08592568  F       0.00000000       0.00000000       0.00000000
O        1.58861475       2.83876150       6.08591621  F       0.00000000       0.00000000       0.00000000
O        0.00000677       4.81790638       7.22598148  F       0.00000000       0.00000000       0.00000000
O        6.35896705       1.76059342      10.37835965  T       0.00000000       0.00000000       0.00000000
O        6.35219047       1.27780696       7.93593291  T       0.00000000       0.00000000       0.00000000
O       -0.00034553       1.75034159      10.37799919  T       0.00000000       0.00000000       0.00000000
O        7.93937870       2.69455345      12.79002867  T       0.00000000       0.00000000       0.00000000
O        4.74387920       0.27446668      12.43870855  T       0.00000000       0.00000000       0.00000000
O        4.74394750       2.71681574      12.81702961  T       0.00000000       0.00000000       0.00000000
O        3.16201297       5.10625961      13.67477060  T       0.00000000       0.00000000       0.00000000
O        6.34195524      11.27212613      13.64960535  T       0.00000000       0.00000000       0.00000000
O        4.76585465      10.00826748       2.73351527  F       0.00000000       0.00000000       0.00000000
O        4.76585465      12.47529802       2.73351527  F       0.00000000       0.00000000       0.00000000
O        3.17723643       8.02984482       3.96703054  F       0.00000000       0.00000000       0.00000000
O        3.17723643       8.02984482       1.50000000  F       0.00000000       0.00000000       0.00000000
O        4.76583213       9.26262741       6.08592309  F       0.00000000       0.00000000       0.00000000
O        3.17722243      11.24178386       7.22601453  F       0.00000000       0.00000000       0.00000000
O        3.17723643      11.24178275       4.71193793  F       0.00000000       0.00000000       0.00000000
O        4.76327885       9.91196092       8.93081905  T       0.00000000       0.00000000       0.00000000
O        4.76471587      12.36352199       9.50710301  T       0.00000000       0.00000000       0.00000000
O        3.16403692       8.28357109      10.37944827  T       0.00000000       0.00000000       0.00000000
O        3.17834544       7.71670639       7.94849621  T       0.00000000       0.00000000       0.00000000
O        4.79720401       6.66846506      11.98175743  T       0.00000000       0.00000000       0.00000000
O        4.76556635       9.09530123      12.80175767  T       0.00000000       0.00000000       0.00000000
O        3.15338896      11.25393733      13.65821349  T       0.00000000       0.00000000       0.00000000
O        3.16432288      10.83657441      11.19983723  T       0.00000000       0.00000000       0.00000000
O        7.94309108       3.58439162       2.73351527  F       0.00000000       0.00000000       0.00000000
O        7.93844647       0.27193010      12.44337923  T       0.00000000       0.00000000       0.00000000
O        3.17969183       1.27724028       7.93075018  T       0.00000000       0.00000000       0.00000000
O        3.18325528       1.76580951      10.37311777  T       0.00000000       0.00000000       0.00000000
O        4.76583238       6.79706024       6.08593407  F       0.00000000       0.00000000       0.00000000
O        6.32614539       4.90828982      13.66122755  T       0.00000000       0.00000000       0.00000000
O        4.75531357       5.93691585       9.47846137  T       0.00000000       0.00000000       0.00000000
O        6.34290260       4.36617121      11.20670183  T       0.00000000       0.00000000       0.00000000
O        7.94309108      10.00826748       2.73351527  F       0.00000000       0.00000000       0.00000000
O        7.94309108      12.47529802       2.73351527  F       0.00000000       0.00000000       0.00000000
O        6.35447286       8.02984482       3.96703054  F       0.00000000       0.00000000       0.00000000
O        6.35447286       8.02984482       1.50000000  F       0.00000000       0.00000000       0.00000000
O        7.94309077       6.79706319       6.08592610  F       0.00000000       0.00000000       0.00000000
O        6.35446208      11.24178289       7.22597601  F       0.00000000       0.00000000       0.00000000
O        6.35447286      11.24178275       4.71193793  F       0.00000000       0.00000000       0.00000000
O        7.93396442       9.91515010       8.91513282  T       0.00000000       0.00000000       0.00000000
O        7.94309115       9.26262662       6.08591614  F       0.00000000       0.00000000       0.00000000
O        6.34779566       8.24115837      10.37274308  T       0.00000000       0.00000000       0.00000000
O        4.76923993       3.47820500       8.90670732  T       0.00000000       0.00000000       0.00000000
O        7.93660681      12.36587960       9.50905919  T       0.00000000       0.00000000       0.00000000
O        3.17723643       4.81790689       4.71193793  F       0.00000000       0.00000000       0.00000000
O        6.35447286       1.60596896       3.96703054  F       0.00000000       0.00000000       0.00000000
O        7.94309701       0.37317906       6.08592278  F       0.00000000       0.00000000       0.00000000
O        7.94309108       6.05142216       2.73351527  F       0.00000000       0.00000000       0.00000000
O        7.93674860       6.70487024      12.43950533  T       0.00000000       0.00000000       0.00000000
O        6.34733483       7.70375293       7.94094593  T       0.00000000       0.00000000       0.00000000
O        7.93074556       9.14101040      12.82855189  T       0.00000000       0.00000000       0.00000000
Pd       4.76586017      11.24177762       5.96678586  F       0.00000000       0.00000000       0.00000000
Pd       4.74877830      11.10855803      12.44232108  T       0.00000000       0.00000000       0.00000000
Pd       3.15459088       7.82820469      12.35570195  T       0.00000000       0.00000000       0.00000000
Pd       1.57752151      11.10676010      12.43417470  T       0.00000000       0.00000000       0.00000000
Pd       3.17725104       8.02984249       5.93124939  F       0.00000000       0.00000000       0.00000000
Pd       9.53167951       8.02984246       5.93125040  F       0.00000000       0.00000000       0.00000000
Pd       7.94309108       1.60596896       2.73351527  F       0.00000000       0.00000000       0.00000000
Pd       6.35447286       4.81790689       2.73351527  F       0.00000000       0.00000000       0.00000000
Pd       1.58862042      11.24178075       5.96678264  F       0.00000000       0.00000000       0.00000000
Pd       9.50010118       7.91976496      12.31515827  T       0.00000000       0.00000000       0.00000000
Pd       6.34234902       1.50439154      12.34830907  T       0.00000000       0.00000000       0.00000000
Pd       6.35446907       1.60596427       5.93125186  F       0.00000000       0.00000000       0.00000000
Pd       0.00000000      11.24178275       2.73351527  F       0.00000000       0.00000000       0.00000000
Pd       1.58861822       8.02984482       2.73351527  F       0.00000000       0.00000000       0.00000000
Pd       7.94447923       1.49272154       9.15818568  T       0.00000000       0.00000000       0.00000000
Pd       6.35236844       4.70534681       9.23753007  T       0.00000000       0.00000000       0.00000000
Pd       3.17723643      11.24178275       2.73351527  F       0.00000000       0.00000000       0.00000000
Pd       4.76585465       8.02984482       2.73351527  F       0.00000000       0.00000000       0.00000000
Pd       9.53479428       1.51174499      12.35082925  T       0.00000000       0.00000000       0.00000000
Pd       4.75740144       7.93474421       9.16134049  T       0.00000000       0.00000000       0.00000000
Pd       1.59091716       7.93724170       9.14743725  T       0.00000000       0.00000000       0.00000000
Pd       7.94307467       4.81790887       5.96677722  F       0.00000000       0.00000000       0.00000000
Pd       9.52404670      11.13368605       9.22589033  T       0.00000000       0.00000000       0.00000000
Pd       9.52535038       4.69816818       9.22740593  T       0.00000000       0.00000000       0.00000000
Pd       7.92840526       4.69440282      12.44270775  T       0.00000000       0.00000000       0.00000000
Pd       4.76585465       1.60596896       2.73351527  F       0.00000000       0.00000000       0.00000000
Pd       4.76165582       4.73845325      12.43119524  T       0.00000000       0.00000000       0.00000000
Pd       7.94307042      11.24177723       5.96677003  F       0.00000000       0.00000000       0.00000000
Pd       6.35446228       8.02984189       5.93125037  F       0.00000000       0.00000000       0.00000000
Pd       6.35447286      11.24178275       2.73351527  F       0.00000000       0.00000000       0.00000000
Pd       7.94309108       8.02984482       2.73351527  F       0.00000000       0.00000000       0.00000000
Pd       3.17194149       1.51450417      12.35183952  T       0.00000000       0.00000000       0.00000000
Pd       1.59253890       1.49293943       9.15755731  T       0.00000000       0.00000000       0.00000000
Pd       3.17126546      11.12853995       9.22884764  T       0.00000000       0.00000000       0.00000000
Pd       7.93945179       7.92242958       9.15369712  T       0.00000000       0.00000000       0.00000000
Pd       6.34899943      11.12868223       9.22963320  T       0.00000000       0.00000000       0.00000000
Pd       1.58861839       4.81790857       5.96677563  F       0.00000000       0.00000000       0.00000000
Pd       4.76586828       4.81790686       5.96677661  F       0.00000000       0.00000000       0.00000000
Pd       3.17443464       4.69498201       9.22737155  T       0.00000000       0.00000000       0.00000000
Pd       4.76948942       1.49462295       9.15654651  T       0.00000000       0.00000000       0.00000000
Pd       7.93174746      11.11537414      12.43055341  T       0.00000000       0.00000000       0.00000000
Pd       6.34636908       7.93110068      12.34085984  T       0.00000000       0.00000000       0.00000000
Pd       3.17725665       1.60596829       5.93125128  F       0.00000000       0.00000000       0.00000000
Pd       0.00000000       4.81790689       2.73351527  F       0.00000000       0.00000000       0.00000000
Pd       9.53168164       1.60596920       5.93125239  F       0.00000000       0.00000000       0.00000000
Pd       3.17723643       4.81790689       2.73351527  F       0.00000000       0.00000000       0.00000000
Pd       1.57098650       4.75619246      12.41239405  T       0.00000000       0.00000000       0.00000000
Pd       1.58861822       1.60596896       2.73351527  F       0.00000000       0.00000000       0.00000000
C        3.12104953       6.93662263      14.20145878  T       0.00000000       0.00000000       0.00000000
O        3.17016971       6.97269119      15.35989537  T       0.00000000       0.00000000       0.00000000
