146
Lattice="9.531709292017604 0.0 0.0 0.0 12.847751714415933 0.0 0.0 0.0 32.10284432209217" Properties=species:S:1:pos:R:3:move_mask:L:1:momenta:R:3 adsorbate_info="_JSON {\"site\": {\"coordinates\": [7.943094057852113, 0.396995805347224, 12.65548932401895], \"connectivity\": 1, \"topology\": [70], \"n_vector\": [0.034729821896381664, 0.2533892515099636, 0.9667407753323877], \"h_vector\": [1.0, 0.0, 0.0], \"site_formula\": {\"O\": 1}}, \"smiles\": \"Cl[C]=O\", \"mdf\": 2.1611501431902402, \"adsorbate_formula\": \"CO\"}" mace_E=-756.5704478577572 converged=F n_steps=88 d_min=3.0150920230834695 site_type=hollow dE_rel_meV=0 original_idx=97 rank=128 E_MACE=-753.4111022363126 pbc="T T T"
O        3.17592334       4.48050188      11.20770288  T       0.00000000       0.00000000       0.00000000
O        1.59036312       0.27664374      12.54609233  T       0.00000000       0.00000000       0.00000000
O        1.58875731       2.71379085      12.77421636  T       0.00000000       0.00000000       0.00000000
O        9.53333273       4.81572074      13.68382152  T       0.00000000       0.00000000       0.00000000
O       -0.00162008       4.47553900      11.20856262  T       0.00000000       0.00000000       0.00000000
O        1.58861822      10.00826748       2.73351527  F       0.00000000       0.00000000       0.00000000
O        1.58861822      12.47529802       2.73351527  F       0.00000000       0.00000000       0.00000000
O        4.76584344       2.83874884       6.08591509  F       0.00000000       0.00000000       0.00000000
O        0.00000000       8.02984482       1.50000000  F       0.00000000       0.00000000       0.00000000
O        1.58861107       6.79705424       6.08592811  F       0.00000000       0.00000000       0.00000000
O        9.53278005       1.34151212       7.95215935  T       0.00000000       0.00000000       0.00000000
O        1.58861150       9.26263623       6.08591827  F       0.00000000       0.00000000       0.00000000
O        4.76583598       0.37317881       6.08593111  F       0.00000000       0.00000000       0.00000000
O        6.35552303      11.02507466      11.28853925  T       0.00000000       0.00000000       0.00000000
O        3.17723028       4.81790423       7.22598268  F       0.00000000       0.00000000       0.00000000
O        6.35447286       1.60596896       1.50000000  F       0.00000000       0.00000000       0.00000000
O        7.94309377       2.83875127       6.08591528  F       0.00000000       0.00000000       0.00000000
O        6.35447101       4.81790868       7.22598243  F       0.00000000       0.00000000       0.00000000
O        6.35447286       4.81790689       4.71193793  F       0.00000000       0.00000000       0.00000000
O        7.94300022       3.54044608       8.93699492  T       0.00000000       0.00000000       0.00000000
O        7.93823848       6.00093199       9.52968703  T       0.00000000       0.00000000       0.00000000
O        0.00000338      11.24178289       7.22597220  F       0.00000000       0.00000000       0.00000000
O        1.58855358       5.99957398       9.53750662  T       0.00000000       0.00000000       0.00000000
O        1.58670300       3.53794174       8.93770179  T       0.00000000       0.00000000       0.00000000
O        0.00000000       4.81790689       4.71193793  F       0.00000000       0.00000000       0.00000000
O        1.58810739      12.42089499       9.52188895  T       0.00000000       0.00000000       0.00000000
O       -0.00200362       8.21595101      10.40686011  T       0.00000000       0.00000000       0.00000000
O        0.04065895      10.82849550      11.17046201  T       0.00000000       0.00000000       0.00000000
O        4.76585465       6.05142216       2.73351527  F       0.00000000       0.00000000       0.00000000
O        9.52942512       7.76201469       7.94889527  T       0.00000000       0.00000000       0.00000000
O        3.17723643       1.60596896       3.96703054  F       0.00000000       0.00000000       0.00000000
O        9.53645204      11.21939448      13.66615842  T       0.00000000       0.00000000       0.00000000
O        1.59143562       9.12808045      12.78286692  T       0.00000000       0.00000000       0.00000000
O        4.76585465       3.58439162       2.73351527  F       0.00000000       0.00000000       0.00000000
O        1.58789315       6.70245334      12.55396949  T       0.00000000       0.00000000       0.00000000
O        3.17723643       1.60596896       1.50000000  F       0.00000000       0.00000000       0.00000000
O        0.00000000       8.02984482       3.96703054  F       0.00000000       0.00000000       0.00000000
O        1.58831740       9.96085350       8.88894245  T       0.00000000       0.00000000       0.00000000
O        0.00000000      11.24178275       4.71193793  F       0.00000000       0.00000000       0.00000000
O        1.58861822       3.58439162       2.73351527  F       0.00000000       0.00000000       0.00000000
O        1.58861822       6.05142216       2.73351527  F       0.00000000       0.00000000       0.00000000
O        0.00000000       1.60596896       3.96703054  F       0.00000000       0.00000000       0.00000000
O        0.00000000       1.60596896       1.50000000  F       0.00000000       0.00000000       0.00000000
O        1.58861510       0.37317604       6.08592568  F       0.00000000       0.00000000       0.00000000
O        1.58861475       2.83876150       6.08591621  F       0.00000000       0.00000000       0.00000000
O        0.00000677       4.81790638       7.22598148  F       0.00000000       0.00000000       0.00000000
O        6.35522727       1.80459508      10.40939529  T       0.00000000       0.00000000       0.00000000
O        6.35374102       1.34471095       7.94975108  T       0.00000000       0.00000000       0.00000000
O       -0.00507191       1.79528109      10.41573327  T       0.00000000       0.00000000       0.00000000
O        7.94408433       2.71987384      12.78170499  T       0.00000000       0.00000000       0.00000000
O        4.79056741       0.26742099      12.61684504  T       0.00000000       0.00000000       0.00000000
O        4.76729559       2.72221302      12.77986475  T       0.00000000       0.00000000       0.00000000
O        3.17410420       4.81514098      13.68181725  T       0.00000000       0.00000000       0.00000000
O        6.27754852      11.40789911      15.35376265  T       0.00000000       0.00000000       0.00000000
O        4.76585465      10.00826748       2.73351527  F       0.00000000       0.00000000       0.00000000
O        4.76585465      12.47529802       2.73351527  F       0.00000000       0.00000000       0.00000000
O        3.17723643       8.02984482       3.96703054  F       0.00000000       0.00000000       0.00000000
O        3.17723643       8.02984482       1.50000000  F       0.00000000       0.00000000       0.00000000
O        4.76583213       9.26262741       6.08592309  F       0.00000000       0.00000000       0.00000000
O        3.17722243      11.24178386       7.22601453  F       0.00000000       0.00000000       0.00000000
O        3.17723643      11.24178275       4.71193793  F       0.00000000       0.00000000       0.00000000
O        4.76944792       9.96407367       8.93658651  T       0.00000000       0.00000000       0.00000000
O        4.76295499      12.42691041       9.54469437  T       0.00000000       0.00000000       0.00000000
O        3.17883759       8.22077087      10.40394627  T       0.00000000       0.00000000       0.00000000
O        3.17732052       7.76109076       7.94736530  T       0.00000000       0.00000000       0.00000000
O        4.77136210       6.70157958      12.54332920  T       0.00000000       0.00000000       0.00000000
O        4.77799602       9.14970530      12.77058605  T       0.00000000       0.00000000       0.00000000
O        3.17862613      11.22510538      13.66497360  T       0.00000000       0.00000000       0.00000000
O        3.14025282      10.83107640      11.16937192  T       0.00000000       0.00000000       0.00000000
O        7.94309108       3.58439162       2.73351527  F       0.00000000       0.00000000       0.00000000
O        7.92302752       0.26661752      12.61075751  T       0.00000000       0.00000000       0.00000000
O        3.17667186       1.34517010       7.95283830  T       0.00000000       0.00000000       0.00000000
O        3.18181731       1.80250665      10.41734855  T       0.00000000       0.00000000       0.00000000
O        4.76583238       6.79706024       6.08593407  F       0.00000000       0.00000000       0.00000000
O        6.35356666       4.81801906      13.68292186  T       0.00000000       0.00000000       0.00000000
O        4.76647158       6.00080442       9.53103442  T       0.00000000       0.00000000       0.00000000
O        6.35404415       4.48694737      11.21047205  T       0.00000000       0.00000000       0.00000000
O        7.94309108      10.00826748       2.73351527  F       0.00000000       0.00000000       0.00000000
O        7.94309108      12.47529802       2.73351527  F       0.00000000       0.00000000       0.00000000
O        6.35447286       8.02984482       3.96703054  F       0.00000000       0.00000000       0.00000000
O        6.35447286       8.02984482       1.50000000  F       0.00000000       0.00000000       0.00000000
O        7.94309077       6.79706319       6.08592610  F       0.00000000       0.00000000       0.00000000
O        6.35446208      11.24178289       7.22597601  F       0.00000000       0.00000000       0.00000000
O        6.35447286      11.24178275       4.71193793  F       0.00000000       0.00000000       0.00000000
O        7.93834506       9.96331329       8.93286817  T       0.00000000       0.00000000       0.00000000
O        7.94309115       9.26262662       6.08591614  F       0.00000000       0.00000000       0.00000000
O        6.35131755       8.27032370      10.40198971  T       0.00000000       0.00000000       0.00000000
O        4.76466651       3.54097293       8.93688631  T       0.00000000       0.00000000       0.00000000
O        7.94606442      12.42535911       9.54489179  T       0.00000000       0.00000000       0.00000000
O        3.17723643       4.81790689       4.71193793  F       0.00000000       0.00000000       0.00000000
O        6.35447286       1.60596896       3.96703054  F       0.00000000       0.00000000       0.00000000
O        7.94309701       0.37317906       6.08592278  F       0.00000000       0.00000000       0.00000000
O        7.94309108       6.05142216       2.73351527  F       0.00000000       0.00000000       0.00000000
O        7.93860180       6.70061904      12.54043051  T       0.00000000       0.00000000       0.00000000
O        6.35352322       7.75638809       7.94443525  T       0.00000000       0.00000000       0.00000000
O        7.93108106       9.14971239      12.77460930  T       0.00000000       0.00000000       0.00000000
Pd       4.76586017      11.24177762       5.96678586  F       0.00000000       0.00000000       0.00000000
Pd       4.71791604      11.12796468      12.43397555  T       0.00000000       0.00000000       0.00000000
Pd       3.18205174       7.92969234      12.38247067  T       0.00000000       0.00000000       0.00000000
Pd       1.58995218      11.11596010      12.44737003  T       0.00000000       0.00000000       0.00000000
Pd       3.17725104       8.02984249       5.93124939  F       0.00000000       0.00000000       0.00000000
Pd       9.53167951       8.02984246       5.93125040  F       0.00000000       0.00000000       0.00000000
Pd       7.94309108       1.60596896       2.73351527  F       0.00000000       0.00000000       0.00000000
Pd       6.35447286       4.81790689       2.73351527  F       0.00000000       0.00000000       0.00000000
Pd       1.58862042      11.24178075       5.96678264  F       0.00000000       0.00000000       0.00000000
Pd       9.52839762       7.92918377      12.38524694  T       0.00000000       0.00000000       0.00000000
Pd       6.35469340       1.52458987      12.39122564  T       0.00000000       0.00000000       0.00000000
Pd       6.35446907       1.60596427       5.93125186  F       0.00000000       0.00000000       0.00000000
Pd       0.00000000      11.24178275       2.73351527  F       0.00000000       0.00000000       0.00000000
Pd       1.58861822       8.02984482       2.73351527  F       0.00000000       0.00000000       0.00000000
Pd       7.94303802       1.55316031       9.17735363  T       0.00000000       0.00000000       0.00000000
Pd       6.35325202       4.76334197       9.23774127  T       0.00000000       0.00000000       0.00000000
Pd       3.17723643      11.24178275       2.73351527  F       0.00000000       0.00000000       0.00000000
Pd       4.76585465       8.02984482       2.73351527  F       0.00000000       0.00000000       0.00000000
Pd       9.52585281       1.51083043      12.39990346  T       0.00000000       0.00000000       0.00000000
Pd       4.76776995       7.97779073       9.17059363  T       0.00000000       0.00000000       0.00000000
Pd       1.58800929       7.97641278       9.17243017  T       0.00000000       0.00000000       0.00000000
Pd       7.94307467       4.81790887       5.96677722  F       0.00000000       0.00000000       0.00000000
Pd       9.53437321      11.18664859       9.22150405  T       0.00000000       0.00000000       0.00000000
Pd       9.53078233       4.76488439       9.23871475  T       0.00000000       0.00000000       0.00000000
Pd       7.94436374       4.70520435      12.45692544  T       0.00000000       0.00000000       0.00000000
Pd       4.76585465       1.60596896       2.73351527  F       0.00000000       0.00000000       0.00000000
Pd       4.76333570       4.70599389      12.45543911  T       0.00000000       0.00000000       0.00000000
Pd       7.94307042      11.24177723       5.96677003  F       0.00000000       0.00000000       0.00000000
Pd       6.35446228       8.02984189       5.93125037  F       0.00000000       0.00000000       0.00000000
Pd       6.35447286      11.24178275       2.73351527  F       0.00000000       0.00000000       0.00000000
Pd       7.94309108       8.02984482       2.73351527  F       0.00000000       0.00000000       0.00000000
Pd       3.18516907       1.51442392      12.40119546  T       0.00000000       0.00000000       0.00000000
Pd       1.58874950       1.55428068       9.18262874  T       0.00000000       0.00000000       0.00000000
Pd       3.17426412      11.18731832       9.22092898  T       0.00000000       0.00000000       0.00000000
Pd       7.93772550       7.97800082       9.17258398  T       0.00000000       0.00000000       0.00000000
Pd       6.35462212      11.18818354       9.25443629  T       0.00000000       0.00000000       0.00000000
Pd       1.58861839       4.81790857       5.96677563  F       0.00000000       0.00000000       0.00000000
Pd       4.76586828       4.81790686       5.96677661  F       0.00000000       0.00000000       0.00000000
Pd       3.17579483       4.76422800       9.23757583  T       0.00000000       0.00000000       0.00000000
Pd       4.76579156       1.55505054       9.17862592  T       0.00000000       0.00000000       0.00000000
Pd       7.99288100      11.12798881      12.43574173  T       0.00000000       0.00000000       0.00000000
Pd       6.35518039       7.92419888      12.37256748  T       0.00000000       0.00000000       0.00000000
Pd       3.17725665       1.60596829       5.93125128  F       0.00000000       0.00000000       0.00000000
Pd       0.00000000       4.81790689       2.73351527  F       0.00000000       0.00000000       0.00000000
Pd       9.53168164       1.60596920       5.93125239  F       0.00000000       0.00000000       0.00000000
Pd       3.17723643       4.81790689       2.73351527  F       0.00000000       0.00000000       0.00000000
Pd       1.58693549       4.70215850      12.45389651  T       0.00000000       0.00000000       0.00000000
Pd       1.58861822       1.60596896       2.73351527  F       0.00000000       0.00000000       0.00000000
C        6.16184149      -0.35617851      15.80220226  T       0.00000000       0.00000000       0.00000000
O        6.05073809       0.72699625      16.25100365  T       0.00000000       0.00000000       0.00000000
