146
Lattice="9.531709292017604 0.0 0.0 0.0 12.847751714415933 0.0 0.0 0.0 32.10284432209217" Properties=species:S:1:pos:R:3:move_mask:L:1:momenta:R:3 adsorbate_info="_JSON {\"site\": {\"coordinates\": [0.7943045288454085, 7.425346828165092, 12.50112754458917], \"connectivity\": 2, \"topology\": [34, 105], \"n_vector\": [0.0038436003439109687, 0.11654228012480726, 0.9931782940035023], \"h_vector\": [0.7864234468584833, -0.5984805544023829, 0.15283712976053515], \"site_formula\": {\"O\": 1, \"Pd\": 1}}, \"smiles\": \"Cl[C]=O\", \"mdf\": 2.1902625853535995, \"adsorbate_formula\": \"CO\"}" mace_E=-756.5946375558258 converged=T n_steps=153 d_min=4.179393055867615 site_type=atop dE_rel_meV=0 original_idx=7 rank=62 E_MACE=-754.0388331693061 pbc="T T T"
O        3.19342316       5.18017927      11.21149819  T       0.00000000       0.00000000       0.00000000
O        1.59460332       0.51206111      12.78331207  T       0.00000000       0.00000000       0.00000000
O        1.60399383       2.96071663      12.54959113  T       0.00000000       0.00000000       0.00000000
O        9.55032678       4.84475725      13.69281769  T       0.00000000       0.00000000       0.00000000
O        0.01636103       5.17820766      11.21578211  T       0.00000000       0.00000000       0.00000000
O        1.58861822      10.00826748       2.73351527  F       0.00000000       0.00000000       0.00000000
O        1.58861822      12.47529802       2.73351527  F       0.00000000       0.00000000       0.00000000
O        4.76584344       2.83874884       6.08591509  F       0.00000000       0.00000000       0.00000000
O        0.00000000       8.02984482       1.50000000  F       0.00000000       0.00000000       0.00000000
O        1.58861107       6.79705424       6.08592811  F       0.00000000       0.00000000       0.00000000
O        9.53783568       1.88825923       7.94719294  T       0.00000000       0.00000000       0.00000000
O        1.58861150       9.26263623       6.08591827  F       0.00000000       0.00000000       0.00000000
O        4.76583598       0.37317881       6.08593111  F       0.00000000       0.00000000       0.00000000
O        6.33440758      11.67887834      11.16925806  T       0.00000000       0.00000000       0.00000000
O        3.17723028       4.81790423       7.22598268  F       0.00000000       0.00000000       0.00000000
O        6.35447286       1.60596896       1.50000000  F       0.00000000       0.00000000       0.00000000
O        7.94309377       2.83875127       6.08591528  F       0.00000000       0.00000000       0.00000000
O        6.35447101       4.81790868       7.22598243  F       0.00000000       0.00000000       0.00000000
O        6.35447286       4.81790689       4.71193793  F       0.00000000       0.00000000       0.00000000
O        7.95364783       3.64979853       9.53893162  T       0.00000000       0.00000000       0.00000000
O        7.95110357       6.11139326       8.93362621  T       0.00000000       0.00000000       0.00000000
O        0.00000338      11.24178289       7.22597220  F       0.00000000       0.00000000       0.00000000
O        1.59608631       6.11038959       8.93330869  T       0.00000000       0.00000000       0.00000000
O        1.59470345       3.64902393       9.53754949  T       0.00000000       0.00000000       0.00000000
O        0.00000000       4.81790689       4.71193793  F       0.00000000       0.00000000       0.00000000
O        1.59468576      12.53422311       8.93298494  T       0.00000000       0.00000000       0.00000000
O        0.00885191       7.86309343      10.41007698  T       0.00000000       0.00000000       0.00000000
O        0.02127698      11.47480496      11.28847392  T       0.00000000       0.00000000       0.00000000
O        4.76585465       6.05142216       2.73351527  F       0.00000000       0.00000000       0.00000000
O        9.53744366       8.30412373       7.94941888  T       0.00000000       0.00000000       0.00000000
O        3.17723643       1.60596896       3.96703054  F       0.00000000       0.00000000       0.00000000
O        9.36647419      10.94160277      15.29547371  T       0.00000000       0.00000000       0.00000000
O        1.59508814       9.38878950      12.60664496  T       0.00000000       0.00000000       0.00000000
O        4.76585465       3.58439162       2.73351527  F       0.00000000       0.00000000       0.00000000
O        1.60936191       6.93929530      12.78637341  T       0.00000000       0.00000000       0.00000000
O        3.17723643       1.60596896       1.50000000  F       0.00000000       0.00000000       0.00000000
O        0.00000000       8.02984482       3.96703054  F       0.00000000       0.00000000       0.00000000
O        1.60527341      10.07202641       9.54584878  T       0.00000000       0.00000000       0.00000000
O        0.00000000      11.24178275       4.71193793  F       0.00000000       0.00000000       0.00000000
O        1.58861822       3.58439162       2.73351527  F       0.00000000       0.00000000       0.00000000
O        1.58861822       6.05142216       2.73351527  F       0.00000000       0.00000000       0.00000000
O        0.00000000       1.60596896       3.96703054  F       0.00000000       0.00000000       0.00000000
O        0.00000000       1.60596896       1.50000000  F       0.00000000       0.00000000       0.00000000
O        1.58861510       0.37317604       6.08592568  F       0.00000000       0.00000000       0.00000000
O        1.58861475       2.83876150       6.08591621  F       0.00000000       0.00000000       0.00000000
O        0.00000677       4.81790638       7.22598148  F       0.00000000       0.00000000       0.00000000
O        6.36277940       1.43300558      10.41290329  T       0.00000000       0.00000000       0.00000000
O        6.36171219       1.88667366       7.94977839  T       0.00000000       0.00000000       0.00000000
O        0.00982863       1.38728599      10.40880839  T       0.00000000       0.00000000       0.00000000
O        7.96456246       2.96187974      12.54837414  T       0.00000000       0.00000000       0.00000000
O        4.78553236       0.53056786      12.79020474  T       0.00000000       0.00000000       0.00000000
O        4.78392412       2.95886478      12.56046150  T       0.00000000       0.00000000       0.00000000
O        3.19852117       4.85023564      13.69013456  T       0.00000000       0.00000000       0.00000000
O        6.37869859      11.29347016      13.66721466  T       0.00000000       0.00000000       0.00000000
O        4.76585465      10.00826748       2.73351527  F       0.00000000       0.00000000       0.00000000
O        4.76585465      12.47529802       2.73351527  F       0.00000000       0.00000000       0.00000000
O        3.17723643       8.02984482       3.96703054  F       0.00000000       0.00000000       0.00000000
O        3.17723643       8.02984482       1.50000000  F       0.00000000       0.00000000       0.00000000
O        4.76583213       9.26262741       6.08592309  F       0.00000000       0.00000000       0.00000000
O        3.17722243      11.24178386       7.22601453  F       0.00000000       0.00000000       0.00000000
O        3.17723643      11.24178275       4.71193793  F       0.00000000       0.00000000       0.00000000
O        4.77506353      10.07722082       9.51785641  T       0.00000000       0.00000000       0.00000000
O        4.77520755      12.53832657       8.89277398  T       0.00000000       0.00000000       0.00000000
O        3.18387283       7.85086989      10.41569943  T       0.00000000       0.00000000       0.00000000
O        3.18561323       8.29807158       7.95069349  T       0.00000000       0.00000000       0.00000000
O        4.78677797       6.94613109      12.77477817  T       0.00000000       0.00000000       0.00000000
O        4.79011993       9.38244398      12.52437733  T       0.00000000       0.00000000       0.00000000
O        3.20287206      11.28120264      13.66676832  T       0.00000000       0.00000000       0.00000000
O        3.23205921      11.67531417      11.17227515  T       0.00000000       0.00000000       0.00000000
O        7.94309108       3.58439162       2.73351527  F       0.00000000       0.00000000       0.00000000
O        7.97579958       0.51539007      12.77871867  T       0.00000000       0.00000000       0.00000000
O        3.18349252       1.88726168       7.94938879  T       0.00000000       0.00000000       0.00000000
O        3.18895013       1.43353066      10.41246876  T       0.00000000       0.00000000       0.00000000
O        4.76583238       6.79706024       6.08593407  F       0.00000000       0.00000000       0.00000000
O        6.36976690       4.84618903      13.68983481  T       0.00000000       0.00000000       0.00000000
O        4.77381708       6.10860355       8.93618246  T       0.00000000       0.00000000       0.00000000
O        6.37160123       5.18167286      11.21165671  T       0.00000000       0.00000000       0.00000000
O        7.94309108      10.00826748       2.73351527  F       0.00000000       0.00000000       0.00000000
O        7.94309108      12.47529802       2.73351527  F       0.00000000       0.00000000       0.00000000
O        6.35447286       8.02984482       3.96703054  F       0.00000000       0.00000000       0.00000000
O        6.35447286       8.02984482       1.50000000  F       0.00000000       0.00000000       0.00000000
O        7.94309077       6.79706319       6.08592610  F       0.00000000       0.00000000       0.00000000
O        6.35446208      11.24178289       7.22597601  F       0.00000000       0.00000000       0.00000000
O        6.35447286      11.24178275       4.71193793  F       0.00000000       0.00000000       0.00000000
O        7.94721507      10.07285635       9.54779117  T       0.00000000       0.00000000       0.00000000
O        7.94309115       9.26262662       6.08591614  F       0.00000000       0.00000000       0.00000000
O        6.36907897       7.85383583      10.41735279  T       0.00000000       0.00000000       0.00000000
O        4.77453350       3.65100294       9.54088623  T       0.00000000       0.00000000       0.00000000
O        7.95626825      12.53378722       8.93196247  T       0.00000000       0.00000000       0.00000000
O        3.17723643       4.81790689       4.71193793  F       0.00000000       0.00000000       0.00000000
O        6.35447286       1.60596896       3.96703054  F       0.00000000       0.00000000       0.00000000
O        7.94309701       0.37317906       6.08592278  F       0.00000000       0.00000000       0.00000000
O        7.94309108       6.05142216       2.73351527  F       0.00000000       0.00000000       0.00000000
O        7.96513177       6.93983600      12.78615544  T       0.00000000       0.00000000       0.00000000
O        6.35827639       8.30057207       7.95164713  T       0.00000000       0.00000000       0.00000000
O        7.98458761       9.39416924      12.61081342  T       0.00000000       0.00000000       0.00000000
Pd       4.76586017      11.24177762       5.96678586  F       0.00000000       0.00000000       0.00000000
Pd       4.78615359      11.39028219      12.44791903  T       0.00000000       0.00000000       0.00000000
Pd       3.19350141       8.14409941      12.39570006  T       0.00000000       0.00000000       0.00000000
Pd       1.65963159      11.37494360      12.44006613  T       0.00000000       0.00000000       0.00000000
Pd       3.17725104       8.02984249       5.93124939  F       0.00000000       0.00000000       0.00000000
Pd       9.53167951       8.02984246       5.93125040  F       0.00000000       0.00000000       0.00000000
Pd       7.94309108       1.60596896       2.73351527  F       0.00000000       0.00000000       0.00000000
Pd       6.35447286       4.81790689       2.73351527  F       0.00000000       0.00000000       0.00000000
Pd       1.58862042      11.24178075       5.96678264  F       0.00000000       0.00000000       0.00000000
Pd       9.55500632       8.13546185      12.39493345  T       0.00000000       0.00000000       0.00000000
Pd       6.37616166       1.73270671      12.39126552  T       0.00000000       0.00000000       0.00000000
Pd       6.35446907       1.60596427       5.93125186  F       0.00000000       0.00000000       0.00000000
Pd       0.00000000      11.24178275       2.73351527  F       0.00000000       0.00000000       0.00000000
Pd       1.58861822       8.02984482       2.73351527  F       0.00000000       0.00000000       0.00000000
Pd       7.95369472       1.67271354       9.17640160  T       0.00000000       0.00000000       0.00000000
Pd       6.36327444       4.88646073       9.24042865  T       0.00000000       0.00000000       0.00000000
Pd       3.17723643      11.24178275       2.73351527  F       0.00000000       0.00000000       0.00000000
Pd       4.76585465       8.02984482       2.73351527  F       0.00000000       0.00000000       0.00000000
Pd       9.55091581       1.74076937      12.37772806  T       0.00000000       0.00000000       0.00000000
Pd       4.77439318       8.09328183       9.18194171  T       0.00000000       0.00000000       0.00000000
Pd       1.59800428       8.09705754       9.17667013  T       0.00000000       0.00000000       0.00000000
Pd       7.94307467       4.81790887       5.96677722  F       0.00000000       0.00000000       0.00000000
Pd       9.54176235      11.30898347       9.25372374  T       0.00000000       0.00000000       0.00000000
Pd       9.53975888       4.88889422       9.24103119  T       0.00000000       0.00000000       0.00000000
Pd       7.95993483       4.95747156      12.46270887  T       0.00000000       0.00000000       0.00000000
Pd       4.76585465       1.60596896       2.73351527  F       0.00000000       0.00000000       0.00000000
Pd       4.78419003       4.95690043      12.45965850  T       0.00000000       0.00000000       0.00000000
Pd       7.94307042      11.24177723       5.96677003  F       0.00000000       0.00000000       0.00000000
Pd       6.35446228       8.02984189       5.93125037  F       0.00000000       0.00000000       0.00000000
Pd       6.35447286      11.24178275       2.73351527  F       0.00000000       0.00000000       0.00000000
Pd       7.94309108       8.02984482       2.73351527  F       0.00000000       0.00000000       0.00000000
Pd       3.19306625       1.72962740      12.39161184  T       0.00000000       0.00000000       0.00000000
Pd       1.59484107       1.67269588       9.17590409  T       0.00000000       0.00000000       0.00000000
Pd       3.19003854      11.31164699       9.22232177  T       0.00000000       0.00000000       0.00000000
Pd       7.95039794       8.09754029       9.17807143  T       0.00000000       0.00000000       0.00000000
Pd       6.36156121      11.31164015       9.22057976  T       0.00000000       0.00000000       0.00000000
Pd       1.58861839       4.81790857       5.96677563  F       0.00000000       0.00000000       0.00000000
Pd       4.76586828       4.81790686       5.96677661  F       0.00000000       0.00000000       0.00000000
Pd       3.18482912       4.88598125       9.24055362  T       0.00000000       0.00000000       0.00000000
Pd       4.77453385       1.67508485       9.17554009  T       0.00000000       0.00000000       0.00000000
Pd       7.91579558      11.38236424      12.42968990  T       0.00000000       0.00000000       0.00000000
Pd       6.38493816       8.14572750      12.39964140  T       0.00000000       0.00000000       0.00000000
Pd       3.17725665       1.60596829       5.93125128  F       0.00000000       0.00000000       0.00000000
Pd       0.00000000       4.81790689       2.73351527  F       0.00000000       0.00000000       0.00000000
Pd       9.53168164       1.60596920       5.93125239  F       0.00000000       0.00000000       0.00000000
Pd       3.17723643       4.81790689       2.73351527  F       0.00000000       0.00000000       0.00000000
Pd       1.60858628       4.95731791      12.46317090  T       0.00000000       0.00000000       0.00000000
Pd       1.58861822       1.60596896       2.73351527  F       0.00000000       0.00000000       0.00000000
C       -0.80867214      10.08344187      15.78528255  T       0.00000000       0.00000000       0.00000000
O       -1.43683180       9.22396352      16.28763714  T       0.00000000       0.00000000       0.00000000
