146
Lattice="9.531709292017604 0.0 0.0 0.0 12.847751714415933 0.0 0.0 0.0 32.10284432209217" Properties=species:S:1:pos:R:3:move_mask:L:1:momenta:R:3 adsorbate_info="_JSON {\"site\": {\"coordinates\": [7.943085709983216, 8.029832618010898, 12.655489785503043], \"connectivity\": 2, \"topology\": [93, 95], \"n_vector\": [0.038998312267922296, -0.008836997783330797, 0.9992001997149675], \"h_vector\": [-7.14646749465348e-06, -0.9999999999737748, 1.1741399871076448e-06], \"site_formula\": {\"O\": 2}}, \"smiles\": \"Cl[C]=O\", \"mdf\": 2.3728220560581255, \"adsorbate_formula\": \"CO\"}" mace_E=-754.0035309525747 converged=T n_steps=66 d_min=3.228076960585189 site_type=hollow dE_rel_meV=0 original_idx=104 rank=66 E_MACE=-754.0335948606477 pbc="T T T"
O        3.17293897       5.11423627      11.21343860  T       0.00000000       0.00000000       0.00000000
O        1.58253128       0.44905233      12.77628642  T       0.00000000       0.00000000       0.00000000
O        1.58444253       2.88398840      12.53496741  T       0.00000000       0.00000000       0.00000000
O        9.52666489       4.76504341      13.68991254  T       0.00000000       0.00000000       0.00000000
O       -0.00620624       5.11204863      11.21517958  T       0.00000000       0.00000000       0.00000000
O        1.58861822      10.00826748       2.73351527  F       0.00000000       0.00000000       0.00000000
O        1.58861822      12.47529802       2.73351527  F       0.00000000       0.00000000       0.00000000
O        4.76584344       2.83874884       6.08591509  F       0.00000000       0.00000000       0.00000000
O        0.00000000       8.02984482       1.50000000  F       0.00000000       0.00000000       0.00000000
O        1.58861107       6.79705424       6.08592811  F       0.00000000       0.00000000       0.00000000
O        9.53025474       1.85186307       7.94936980  T       0.00000000       0.00000000       0.00000000
O        1.58861150       9.26263623       6.08591827  F       0.00000000       0.00000000       0.00000000
O        4.76583598       0.37317881       6.08593111  F       0.00000000       0.00000000       0.00000000
O        6.34773225      11.53719552      11.20856602  T       0.00000000       0.00000000       0.00000000
O        3.17723028       4.81790423       7.22598268  F       0.00000000       0.00000000       0.00000000
O        6.35447286       1.60596896       1.50000000  F       0.00000000       0.00000000       0.00000000
O        7.94309377       2.83875127       6.08591528  F       0.00000000       0.00000000       0.00000000
O        6.35447101       4.81790868       7.22598243  F       0.00000000       0.00000000       0.00000000
O        6.35447286       4.81790689       4.71193793  F       0.00000000       0.00000000       0.00000000
O        7.94084670       3.59450104       9.53374980  T       0.00000000       0.00000000       0.00000000
O        7.94087978       6.05879343       8.93549969  T       0.00000000       0.00000000       0.00000000
O        0.00000338      11.24178289       7.22597220  F       0.00000000       0.00000000       0.00000000
O        1.58596672       6.05685971       8.93934680  T       0.00000000       0.00000000       0.00000000
O        1.58591206       3.59514058       9.53575293  T       0.00000000       0.00000000       0.00000000
O        0.00000000       4.81790689       4.71193793  F       0.00000000       0.00000000       0.00000000
O        1.58683309      12.48204276       8.93672196  T       0.00000000       0.00000000       0.00000000
O       -0.00260373       7.77687823      10.40576715  T       0.00000000       0.00000000       0.00000000
O       -0.00379024      11.53905759      11.20949671  T       0.00000000       0.00000000       0.00000000
O        4.76585465       6.05142216       2.73351527  F       0.00000000       0.00000000       0.00000000
O        9.52898554       8.26595178       7.94966586  T       0.00000000       0.00000000       0.00000000
O        3.17723643       1.60596896       3.96703054  F       0.00000000       0.00000000       0.00000000
O        9.52163540      11.18688482      13.68569046  T       0.00000000       0.00000000       0.00000000
O        1.58298314       9.30806859      12.53310539  T       0.00000000       0.00000000       0.00000000
O        4.76585465       3.58439162       2.73351527  F       0.00000000       0.00000000       0.00000000
O        1.58492640       6.87431656      12.77620162  T       0.00000000       0.00000000       0.00000000
O        3.17723643       1.60596896       1.50000000  F       0.00000000       0.00000000       0.00000000
O        0.00000000       8.02984482       3.96703054  F       0.00000000       0.00000000       0.00000000
O        1.58676588      10.01652502       9.52809052  T       0.00000000       0.00000000       0.00000000
O        0.00000000      11.24178275       4.71193793  F       0.00000000       0.00000000       0.00000000
O        1.58861822       3.58439162       2.73351527  F       0.00000000       0.00000000       0.00000000
O        1.58861822       6.05142216       2.73351527  F       0.00000000       0.00000000       0.00000000
O        0.00000000       1.60596896       3.96703054  F       0.00000000       0.00000000       0.00000000
O        0.00000000       1.60596896       1.50000000  F       0.00000000       0.00000000       0.00000000
O        1.58861510       0.37317604       6.08592568  F       0.00000000       0.00000000       0.00000000
O        1.58861475       2.83876150       6.08591621  F       0.00000000       0.00000000       0.00000000
O        0.00000677       4.81790638       7.22598148  F       0.00000000       0.00000000       0.00000000
O        6.35218846       1.35100585      10.40284989  T       0.00000000       0.00000000       0.00000000
O        6.35199325       1.85202559       7.95086295  T       0.00000000       0.00000000       0.00000000
O       -0.00158615       1.35291105      10.40177730  T       0.00000000       0.00000000       0.00000000
O        7.93675818       2.88685337      12.54518374  T       0.00000000       0.00000000       0.00000000
O        4.76111210       0.44943857      12.77220964  T       0.00000000       0.00000000       0.00000000
O        4.76166334       2.88494693      12.53486256  T       0.00000000       0.00000000       0.00000000
O        3.17360349       4.76904120      13.68832196  T       0.00000000       0.00000000       0.00000000
O        6.35221154      11.19297095      13.68435323  T       0.00000000       0.00000000       0.00000000
O        4.76585465      10.00826748       2.73351527  F       0.00000000       0.00000000       0.00000000
O        4.76585465      12.47529802       2.73351527  F       0.00000000       0.00000000       0.00000000
O        3.17723643       8.02984482       3.96703054  F       0.00000000       0.00000000       0.00000000
O        3.17723643       8.02984482       1.50000000  F       0.00000000       0.00000000       0.00000000
O        4.76583213       9.26262741       6.08592309  F       0.00000000       0.00000000       0.00000000
O        3.17722243      11.24178386       7.22601453  F       0.00000000       0.00000000       0.00000000
O        3.17723643      11.24178275       4.71193793  F       0.00000000       0.00000000       0.00000000
O        4.76217551      10.01657561       9.52721809  T       0.00000000       0.00000000       0.00000000
O        4.76268333      12.48193135       8.93869767  T       0.00000000       0.00000000       0.00000000
O        3.17467561       7.77946360      10.40211193  T       0.00000000       0.00000000       0.00000000
O        3.17507114       8.26309943       7.94904065  T       0.00000000       0.00000000       0.00000000
O        4.75835100       6.87473759      12.77677694  T       0.00000000       0.00000000       0.00000000
O        4.75977258       9.30756814      12.53497952  T       0.00000000       0.00000000       0.00000000
O        3.17212589      11.18685336      13.68806336  T       0.00000000       0.00000000       0.00000000
O        3.17053930      11.53061290      11.21393904  T       0.00000000       0.00000000       0.00000000
O        7.94309108       3.58439162       2.73351527  F       0.00000000       0.00000000       0.00000000
O        7.93778800       0.44984983      12.77145950  T       0.00000000       0.00000000       0.00000000
O        3.17647546       1.85334070       7.95027269  T       0.00000000       0.00000000       0.00000000
O        3.17374590       1.34763106      10.40424026  T       0.00000000       0.00000000       0.00000000
O        4.76583238       6.79706024       6.08593407  F       0.00000000       0.00000000       0.00000000
O        6.34711710       4.76613882      13.69264172  T       0.00000000       0.00000000       0.00000000
O        4.76387954       6.05660072       8.93981444  T       0.00000000       0.00000000       0.00000000
O        6.35108007       5.11046923      11.21448764  T       0.00000000       0.00000000       0.00000000
O        7.94309108      10.00826748       2.73351527  F       0.00000000       0.00000000       0.00000000
O        7.94309108      12.47529802       2.73351527  F       0.00000000       0.00000000       0.00000000
O        6.35447286       8.02984482       3.96703054  F       0.00000000       0.00000000       0.00000000
O        6.35447286       8.02984482       1.50000000  F       0.00000000       0.00000000       0.00000000
O        7.94309077       6.79706319       6.08592610  F       0.00000000       0.00000000       0.00000000
O        6.35446208      11.24178289       7.22597601  F       0.00000000       0.00000000       0.00000000
O        6.35447286      11.24178275       4.71193793  F       0.00000000       0.00000000       0.00000000
O        7.94022813      10.01823773       9.52940137  T       0.00000000       0.00000000       0.00000000
O        7.94309115       9.26262662       6.08591614  F       0.00000000       0.00000000       0.00000000
O        6.35053534       7.77729719      10.40368798  T       0.00000000       0.00000000       0.00000000
O        4.76380516       3.59513863       9.53565995  T       0.00000000       0.00000000       0.00000000
O        7.94063080      12.48068440       8.93788588  T       0.00000000       0.00000000       0.00000000
O        3.17723643       4.81790689       4.71193793  F       0.00000000       0.00000000       0.00000000
O        6.35447286       1.60596896       3.96703054  F       0.00000000       0.00000000       0.00000000
O        7.94309701       0.37317906       6.08592278  F       0.00000000       0.00000000       0.00000000
O        7.94309108       6.05142216       2.73351527  F       0.00000000       0.00000000       0.00000000
O        7.93579044       6.87525894      12.77242845  T       0.00000000       0.00000000       0.00000000
O        6.35382156       8.26639014       7.94914099  T       0.00000000       0.00000000       0.00000000
O        7.93395227       9.30906421      12.52854427  T       0.00000000       0.00000000       0.00000000
Pd       4.76586017      11.24177762       5.96678586  F       0.00000000       0.00000000       0.00000000
Pd       4.76099953      11.30593939      12.45995051  T       0.00000000       0.00000000       0.00000000
Pd       3.17069814       8.07994715      12.37143602  T       0.00000000       0.00000000       0.00000000
Pd       1.58185187      11.30586478      12.46220389  T       0.00000000       0.00000000       0.00000000
Pd       3.17725104       8.02984249       5.93124939  F       0.00000000       0.00000000       0.00000000
Pd       9.53167951       8.02984246       5.93125040  F       0.00000000       0.00000000       0.00000000
Pd       7.94309108       1.60596896       2.73351527  F       0.00000000       0.00000000       0.00000000
Pd       6.35447286       4.81790689       2.73351527  F       0.00000000       0.00000000       0.00000000
Pd       1.58862042      11.24178075       5.96678264  F       0.00000000       0.00000000       0.00000000
Pd       9.52483288       8.07746239      12.37555056  T       0.00000000       0.00000000       0.00000000
Pd       6.34990911       1.65583811      12.37220517  T       0.00000000       0.00000000       0.00000000
Pd       6.35446907       1.60596427       5.93125186  F       0.00000000       0.00000000       0.00000000
Pd       0.00000000      11.24178275       2.73351527  F       0.00000000       0.00000000       0.00000000
Pd       1.58861822       8.02984482       2.73351527  F       0.00000000       0.00000000       0.00000000
Pd       7.94103629       1.61898033       9.17315919  T       0.00000000       0.00000000       0.00000000
Pd       6.35267964       4.83342313       9.24208294  T       0.00000000       0.00000000       0.00000000
Pd       3.17723643      11.24178275       2.73351527  F       0.00000000       0.00000000       0.00000000
Pd       4.76585465       8.02984482       2.73351527  F       0.00000000       0.00000000       0.00000000
Pd       9.52571176       1.65526299      12.37256036  T       0.00000000       0.00000000       0.00000000
Pd       4.76359431       8.04180648       9.17249151  T       0.00000000       0.00000000       0.00000000
Pd       1.58584847       8.04163298       9.17318690  T       0.00000000       0.00000000       0.00000000
Pd       7.94307467       4.81790887       5.96677722  F       0.00000000       0.00000000       0.00000000
Pd       9.52971823      11.25552484       9.23894338  T       0.00000000       0.00000000       0.00000000
Pd       9.52891676       4.83383773       9.24279336  T       0.00000000       0.00000000       0.00000000
Pd       7.93707832       4.88528652      12.46425868  T       0.00000000       0.00000000       0.00000000
Pd       4.76585465       1.60596896       2.73351527  F       0.00000000       0.00000000       0.00000000
Pd       4.76127846       4.88565484      12.46161725  T       0.00000000       0.00000000       0.00000000
Pd       7.94307042      11.24177723       5.96677003  F       0.00000000       0.00000000       0.00000000
Pd       6.35446228       8.02984189       5.93125037  F       0.00000000       0.00000000       0.00000000
Pd       6.35447286      11.24178275       2.73351527  F       0.00000000       0.00000000       0.00000000
Pd       7.94309108       8.02984482       2.73351527  F       0.00000000       0.00000000       0.00000000
Pd       3.17240872       1.65346959      12.37434384  T       0.00000000       0.00000000       0.00000000
Pd       1.58724544       1.62000284       9.17327287  T       0.00000000       0.00000000       0.00000000
Pd       3.17428865      11.25630720       9.23862834  T       0.00000000       0.00000000       0.00000000
Pd       7.94060693       8.04126340       9.17490987  T       0.00000000       0.00000000       0.00000000
Pd       6.35121207      11.25528777       9.23798658  T       0.00000000       0.00000000       0.00000000
Pd       1.58861839       4.81790857       5.96677563  F       0.00000000       0.00000000       0.00000000
Pd       4.76586828       4.81790686       5.96677661  F       0.00000000       0.00000000       0.00000000
Pd       3.17480030       4.83273538       9.24256501  T       0.00000000       0.00000000       0.00000000
Pd       4.76309016       1.61951770       9.17530799  T       0.00000000       0.00000000       0.00000000
Pd       7.93693664      11.30878266      12.45361035  T       0.00000000       0.00000000       0.00000000
Pd       6.34728301       8.07738236      12.37288431  T       0.00000000       0.00000000       0.00000000
Pd       3.17725665       1.60596829       5.93125128  F       0.00000000       0.00000000       0.00000000
Pd       0.00000000       4.81790689       2.73351527  F       0.00000000       0.00000000       0.00000000
Pd       9.53168164       1.60596920       5.93125239  F       0.00000000       0.00000000       0.00000000
Pd       3.17723643       4.81790689       2.73351527  F       0.00000000       0.00000000       0.00000000
Pd       1.58359468       4.88555793      12.46208142  T       0.00000000       0.00000000       0.00000000
Pd       1.58861822       1.60596896       2.73351527  F       0.00000000       0.00000000       0.00000000
C        8.02462717       8.98688716      15.65533966  T       0.00000000       0.00000000       0.00000000
O        7.50143817       9.75055803      16.33147137  T       0.00000000       0.00000000       0.00000000
