146
Lattice="9.531709292017604 0.0 0.0 0.0 12.847751714415933 0.0 0.0 0.0 32.10284432209217" Properties=species:S:1:pos:R:3:move_mask:L:1:momenta:R:3 adsorbate_info="_JSON {\"site\": {\"coordinates\": [5.56016449531044, 1.0014841237536847, 12.501136956246958], \"connectivity\": 2, \"topology\": [50, 106], \"n_vector\": [-0.019791052091723976, 0.11103399977438852, 0.9936195273600472], \"h_vector\": [-0.7864158787044122, -0.598487229472035, 0.15284993254972212], \"site_formula\": {\"O\": 1, \"Pd\": 1}}, \"smiles\": \"Cl[C]=O\", \"mdf\": 2.0624566904198067, \"adsorbate_formula\": \"CO\"}" mace_E=-756.5737715782167 converged=T n_steps=153 d_min=4.045286438399501 site_type=unknown dE_rel_meV=0 original_idx=69 rank=0 E_MACE=-756.5946375558258 pbc="T T T"
O        3.12664812       5.23057773      11.16632119  T       0.00000000       0.00000000       0.00000000
O        1.57559523       0.49672339      12.77370924  T       0.00000000       0.00000000       0.00000000
O        1.57480162       2.93350102      12.55078419  T       0.00000000       0.00000000       0.00000000
O        9.52144067       4.84268751      13.66236342  T       0.00000000       0.00000000       0.00000000
O        0.03082702       5.23278305      11.16664786  T       0.00000000       0.00000000       0.00000000
O        1.58861822      10.00826748       2.73351527  F       0.00000000       0.00000000       0.00000000
O        1.58861822      12.47529802       2.73351527  F       0.00000000       0.00000000       0.00000000
O        4.76584344       2.83874884       6.08591509  F       0.00000000       0.00000000       0.00000000
O        0.00000000       8.02984482       1.50000000  F       0.00000000       0.00000000       0.00000000
O        1.58861107       6.79705424       6.08592811  F       0.00000000       0.00000000       0.00000000
O        9.52564983       1.86923748       7.95277779  T       0.00000000       0.00000000       0.00000000
O        1.58861150       9.26263623       6.08591827  F       0.00000000       0.00000000       0.00000000
O        4.76583598       0.37317881       6.08593111  F       0.00000000       0.00000000       0.00000000
O        6.34472037      11.57410064      11.20415082  T       0.00000000       0.00000000       0.00000000
O        3.17723028       4.81790423       7.22598268  F       0.00000000       0.00000000       0.00000000
O        6.35447286       1.60596896       1.50000000  F       0.00000000       0.00000000       0.00000000
O        7.94309377       2.83875127       6.08591528  F       0.00000000       0.00000000       0.00000000
O        6.35447101       4.81790868       7.22598243  F       0.00000000       0.00000000       0.00000000
O        6.35447286       4.81790689       4.71193793  F       0.00000000       0.00000000       0.00000000
O        7.94275348       3.63164454       9.54802466  T       0.00000000       0.00000000       0.00000000
O        7.93359912       6.09144878       8.93014888  T       0.00000000       0.00000000       0.00000000
O        0.00000338      11.24178289       7.22597220  F       0.00000000       0.00000000       0.00000000
O        1.58398536       6.09850615       8.89439076  T       0.00000000       0.00000000       0.00000000
O        1.58295051       3.63677516       9.52001830  T       0.00000000       0.00000000       0.00000000
O        0.00000000       4.81790689       4.71193793  F       0.00000000       0.00000000       0.00000000
O        1.58252413      12.52069822       8.93041834  T       0.00000000       0.00000000       0.00000000
O       -0.00495990       7.83715842      10.39976318  T       0.00000000       0.00000000       0.00000000
O       -0.01211856      11.58441657      11.20201982  T       0.00000000       0.00000000       0.00000000
O        4.76585465       6.05142216       2.73351527  F       0.00000000       0.00000000       0.00000000
O        9.52613341       8.30024433       7.94593951  T       0.00000000       0.00000000       0.00000000
O        3.17723643       1.60596896       3.96703054  F       0.00000000       0.00000000       0.00000000
O        9.52233927      11.23579279      13.67467009  T       0.00000000       0.00000000       0.00000000
O        1.58001013       9.35727416      12.53518792  T       0.00000000       0.00000000       0.00000000
O        4.76585465       3.58439162       2.73351527  F       0.00000000       0.00000000       0.00000000
O        1.57842285       6.92903120      12.77771138  T       0.00000000       0.00000000       0.00000000
O        3.17723643       1.60596896       1.50000000  F       0.00000000       0.00000000       0.00000000
O        0.00000000       8.02984482       3.96703054  F       0.00000000       0.00000000       0.00000000
O        1.58359137      10.06125879       9.52442191  T       0.00000000       0.00000000       0.00000000
O        0.00000000      11.24178275       4.71193793  F       0.00000000       0.00000000       0.00000000
O        1.58861822       3.58439162       2.73351527  F       0.00000000       0.00000000       0.00000000
O        1.58861822       6.05142216       2.73351527  F       0.00000000       0.00000000       0.00000000
O        0.00000000       1.60596896       3.96703054  F       0.00000000       0.00000000       0.00000000
O        0.00000000       1.60596896       1.50000000  F       0.00000000       0.00000000       0.00000000
O        1.58861510       0.37317604       6.08592568  F       0.00000000       0.00000000       0.00000000
O        1.58861475       2.83876150       6.08591621  F       0.00000000       0.00000000       0.00000000
O        0.00000677       4.81790638       7.22598148  F       0.00000000       0.00000000       0.00000000
O        6.34847502       1.40646516      10.40432406  T       0.00000000       0.00000000       0.00000000
O        6.35040973       1.86825655       7.94679662  T       0.00000000       0.00000000       0.00000000
O       -0.00876495       1.41468335      10.41781211  T       0.00000000       0.00000000       0.00000000
O        7.90717882       2.94512734      12.61098329  T       0.00000000       0.00000000       0.00000000
O        4.75703067       0.48554105      12.77560277  T       0.00000000       0.00000000       0.00000000
O        4.77435753       2.93921092      12.60783573  T       0.00000000       0.00000000       0.00000000
O        3.15987460       4.84118017      13.66372594  T       0.00000000       0.00000000       0.00000000
O        6.34231508      11.23177587      13.67767848  T       0.00000000       0.00000000       0.00000000
O        4.76585465      10.00826748       2.73351527  F       0.00000000       0.00000000       0.00000000
O        4.76585465      12.47529802       2.73351527  F       0.00000000       0.00000000       0.00000000
O        3.17723643       8.02984482       3.96703054  F       0.00000000       0.00000000       0.00000000
O        3.17723643       8.02984482       1.50000000  F       0.00000000       0.00000000       0.00000000
O        4.76583213       9.26262741       6.08592309  F       0.00000000       0.00000000       0.00000000
O        3.17722243      11.24178386       7.22601453  F       0.00000000       0.00000000       0.00000000
O        3.17723643      11.24178275       4.71193793  F       0.00000000       0.00000000       0.00000000
O        4.76249655      10.05596375       9.52450896  T       0.00000000       0.00000000       0.00000000
O        4.76100896      12.51910621       8.92572415  T       0.00000000       0.00000000       0.00000000
O        3.17327608       7.83975316      10.39857547  T       0.00000000       0.00000000       0.00000000
O        3.17633099       8.30008237       7.94583326  T       0.00000000       0.00000000       0.00000000
O        4.76950467       6.90933944      12.76717355  T       0.00000000       0.00000000       0.00000000
O        4.75821384       9.35582951      12.53155642  T       0.00000000       0.00000000       0.00000000
O        3.16508422      11.23849158      13.67475133  T       0.00000000       0.00000000       0.00000000
O        3.16865976      11.58718305      11.20178475  T       0.00000000       0.00000000       0.00000000
O        7.94309108       3.58439162       2.73351527  F       0.00000000       0.00000000       0.00000000
O        7.92542284       0.48727944      12.77352994  T       0.00000000       0.00000000       0.00000000
O        3.17189569       1.86997603       7.95173278  T       0.00000000       0.00000000       0.00000000
O        3.17231144       1.41325521      10.41656713  T       0.00000000       0.00000000       0.00000000
O        4.76583238       6.79706024       6.08593407  F       0.00000000       0.00000000       0.00000000
O        6.53848678       4.51166694      15.32074836  T       0.00000000       0.00000000       0.00000000
O        4.76516693       6.09149569       8.92965520  T       0.00000000       0.00000000       0.00000000
O        6.34287980       5.02073359      11.28808459  T       0.00000000       0.00000000       0.00000000
O        7.94309108      10.00826748       2.73351527  F       0.00000000       0.00000000       0.00000000
O        7.94309108      12.47529802       2.73351527  F       0.00000000       0.00000000       0.00000000
O        6.35447286       8.02984482       3.96703054  F       0.00000000       0.00000000       0.00000000
O        6.35447286       8.02984482       1.50000000  F       0.00000000       0.00000000       0.00000000
O        7.94309077       6.79706319       6.08592610  F       0.00000000       0.00000000       0.00000000
O        6.35446208      11.24178289       7.22597601  F       0.00000000       0.00000000       0.00000000
O        6.35447286      11.24178275       4.71193793  F       0.00000000       0.00000000       0.00000000
O        7.93614898      10.05612252       9.52583505  T       0.00000000       0.00000000       0.00000000
O        7.94309115       9.26262662       6.08591614  F       0.00000000       0.00000000       0.00000000
O        6.34944500       7.77843766      10.39719831  T       0.00000000       0.00000000       0.00000000
O        4.75446286       3.63113661       9.54160571  T       0.00000000       0.00000000       0.00000000
O        7.93753021      12.51952747       8.92689181  T       0.00000000       0.00000000       0.00000000
O        3.17723643       4.81790689       4.71193793  F       0.00000000       0.00000000       0.00000000
O        6.35447286       1.60596896       3.96703054  F       0.00000000       0.00000000       0.00000000
O        7.94309701       0.37317906       6.08592278  F       0.00000000       0.00000000       0.00000000
O        7.94309108       6.05142216       2.73351527  F       0.00000000       0.00000000       0.00000000
O        7.92078352       6.91233695      12.76957408  T       0.00000000       0.00000000       0.00000000
O        6.35203166       8.29964391       7.94208979  T       0.00000000       0.00000000       0.00000000
O        7.93007086       9.35871467      12.52881949  T       0.00000000       0.00000000       0.00000000
Pd       4.76586017      11.24177762       5.96678586  F       0.00000000       0.00000000       0.00000000
Pd       4.75307763      11.35089362      12.44855313  T       0.00000000       0.00000000       0.00000000
Pd       3.16994824       8.12752439      12.37548295  T       0.00000000       0.00000000       0.00000000
Pd       1.57700513      11.35795198      12.44660825  T       0.00000000       0.00000000       0.00000000
Pd       3.17725104       8.02984249       5.93124939  F       0.00000000       0.00000000       0.00000000
Pd       9.53167951       8.02984246       5.93125040  F       0.00000000       0.00000000       0.00000000
Pd       7.94309108       1.60596896       2.73351527  F       0.00000000       0.00000000       0.00000000
Pd       6.35447286       4.81790689       2.73351527  F       0.00000000       0.00000000       0.00000000
Pd       1.58862042      11.24178075       5.96678264  F       0.00000000       0.00000000       0.00000000
Pd       9.51932273       8.13017811      12.37578966  T       0.00000000       0.00000000       0.00000000
Pd       6.34094761       1.68254758      12.38667473  T       0.00000000       0.00000000       0.00000000
Pd       6.35446907       1.60596427       5.93125186  F       0.00000000       0.00000000       0.00000000
Pd       0.00000000      11.24178275       2.73351527  F       0.00000000       0.00000000       0.00000000
Pd       1.58861822       8.02984482       2.73351527  F       0.00000000       0.00000000       0.00000000
Pd       7.93812883       1.65722342       9.17736526  T       0.00000000       0.00000000       0.00000000
Pd       6.34880721       4.86548459       9.25229225  T       0.00000000       0.00000000       0.00000000
Pd       3.17723643      11.24178275       2.73351527  F       0.00000000       0.00000000       0.00000000
Pd       4.76585465       8.02984482       2.73351527  F       0.00000000       0.00000000       0.00000000
Pd       9.51072502       1.69929743      12.40344921  T       0.00000000       0.00000000       0.00000000
Pd       4.76566498       8.07838269       9.16738762  T       0.00000000       0.00000000       0.00000000
Pd       1.58449592       8.08431667       9.16778166  T       0.00000000       0.00000000       0.00000000
Pd       7.94307467       4.81790887       5.96677722  F       0.00000000       0.00000000       0.00000000
Pd       9.52560079      11.29541077       9.23312976  T       0.00000000       0.00000000       0.00000000
Pd       9.52958088       4.87028212       9.22027220  T       0.00000000       0.00000000       0.00000000
Pd       7.98006967       4.93312368      12.42917486  T       0.00000000       0.00000000       0.00000000
Pd       4.76585465       1.60596896       2.73351527  F       0.00000000       0.00000000       0.00000000
Pd       4.70497986       4.92766949      12.43221110  T       0.00000000       0.00000000       0.00000000
Pd       7.94307042      11.24177723       5.96677003  F       0.00000000       0.00000000       0.00000000
Pd       6.35446228       8.02984189       5.93125037  F       0.00000000       0.00000000       0.00000000
Pd       6.35447286      11.24178275       2.73351527  F       0.00000000       0.00000000       0.00000000
Pd       7.94309108       8.02984482       2.73351527  F       0.00000000       0.00000000       0.00000000
Pd       3.17182124       1.69625166      12.40186698  T       0.00000000       0.00000000       0.00000000
Pd       1.58213965       1.65727159       9.18136582  T       0.00000000       0.00000000       0.00000000
Pd       3.17280238      11.29615992       9.23362915  T       0.00000000       0.00000000       0.00000000
Pd       7.93544461       8.07849579       9.16840308  T       0.00000000       0.00000000       0.00000000
Pd       6.34936876      11.29497033       9.23349645  T       0.00000000       0.00000000       0.00000000
Pd       1.58861839       4.81790857       5.96677563  F       0.00000000       0.00000000       0.00000000
Pd       4.76586828       4.81790686       5.96677661  F       0.00000000       0.00000000       0.00000000
Pd       3.16837554       4.87047430       9.21973026  T       0.00000000       0.00000000       0.00000000
Pd       4.75906575       1.65635122       9.17625723  T       0.00000000       0.00000000       0.00000000
Pd       7.93277389      11.35209308      12.44976442  T       0.00000000       0.00000000       0.00000000
Pd       6.34476166       8.13771812      12.36334643  T       0.00000000       0.00000000       0.00000000
Pd       3.17725665       1.60596829       5.93125128  F       0.00000000       0.00000000       0.00000000
Pd       0.00000000       4.81790689       2.73351527  F       0.00000000       0.00000000       0.00000000
Pd       9.53168164       1.60596920       5.93125239  F       0.00000000       0.00000000       0.00000000
Pd       3.17723643       4.81790689       2.73351527  F       0.00000000       0.00000000       0.00000000
Pd       1.57692835       4.93878117      12.44502346  T       0.00000000       0.00000000       0.00000000
Pd       1.58861822       1.60596896       2.73351527  F       0.00000000       0.00000000       0.00000000
C        6.73234234       3.39008180      15.62719655  T       0.00000000       0.00000000       0.00000000
O        6.90930432       2.26551908      15.92702171  T       0.00000000       0.00000000       0.00000000
