146
Lattice="9.531709292017604 0.0 0.0 0.0 12.847751714415933 0.0 0.0 0.0 32.10284432209217" Properties=species:S:1:pos:R:3:move_mask:L:1:momenta:R:3 adsorbate_info="_JSON {\"site\": {\"coordinates\": [5.5601577653773075, 7.425353797602205, 12.501128253674697], \"connectivity\": 2, \"topology\": [65, 137], \"n_vector\": [0.004643176689469586, 0.10421352953940224, 0.9945441072024762], \"h_vector\": [-0.78642446913519, -0.59847760131653, 0.15284343318522683], \"site_formula\": {\"O\": 1, \"Pd\": 1}}, \"smiles\": \"Cl[C]=O\", \"mdf\": 2.02784240874459, \"adsorbate_formula\": \"CO\"}" mace_E=-756.5760219975847 converged=T n_steps=152 d_min=3.6082554795671253 site_type=unknown dE_rel_meV=0 original_idx=73 rank=2 E_MACE=-756.5789343537417 pbc="T T T"
O        3.16876711       5.16479071      11.20361433  T       0.00000000       0.00000000       0.00000000
O        1.57875785       0.51135238      12.77904300  T       0.00000000       0.00000000       0.00000000
O        1.57887777       2.93664198      12.54192917  T       0.00000000       0.00000000       0.00000000
O        9.52266234       4.81883943      13.67794145  T       0.00000000       0.00000000       0.00000000
O       -0.01291761       5.16194495      11.20377267  T       0.00000000       0.00000000       0.00000000
O        1.58861822      10.00826748       2.73351527  F       0.00000000       0.00000000       0.00000000
O        1.58861822      12.47529802       2.73351527  F       0.00000000       0.00000000       0.00000000
O        4.76584344       2.83874884       6.08591509  F       0.00000000       0.00000000       0.00000000
O        0.00000000       8.02984482       1.50000000  F       0.00000000       0.00000000       0.00000000
O        1.58861107       6.79705424       6.08592811  F       0.00000000       0.00000000       0.00000000
O        9.52667221       1.87951632       7.94637848  T       0.00000000       0.00000000       0.00000000
O        1.58861150       9.26263623       6.08591827  F       0.00000000       0.00000000       0.00000000
O        4.76583598       0.37317881       6.08593111  F       0.00000000       0.00000000       0.00000000
O        6.34195753      11.44310040      11.28809456  T       0.00000000       0.00000000       0.00000000
O        3.17723028       4.81790423       7.22598268  F       0.00000000       0.00000000       0.00000000
O        6.35447286       1.60596896       1.50000000  F       0.00000000       0.00000000       0.00000000
O        7.94309377       2.83875127       6.08591528  F       0.00000000       0.00000000       0.00000000
O        6.35447101       4.81790868       7.22598243  F       0.00000000       0.00000000       0.00000000
O        6.35447286       4.81790689       4.71193793  F       0.00000000       0.00000000       0.00000000
O        7.93489986       3.63364786       9.52816515  T       0.00000000       0.00000000       0.00000000
O        7.93700547       6.09554051       8.92901413  T       0.00000000       0.00000000       0.00000000
O        0.00000338      11.24178289       7.22597220  F       0.00000000       0.00000000       0.00000000
O        1.58224928       6.09783174       8.93357906  T       0.00000000       0.00000000       0.00000000
O        1.58388325       3.64115866       9.52765142  T       0.00000000       0.00000000       0.00000000
O        0.00000000       4.81790689       4.71193793  F       0.00000000       0.00000000       0.00000000
O        1.58434054      12.52595654       8.89193425  T       0.00000000       0.00000000       0.00000000
O       -0.01048132       7.83533552      10.41408372  T       0.00000000       0.00000000       0.00000000
O        0.02381195      11.66629815      11.16336226  T       0.00000000       0.00000000       0.00000000
O        4.76585465       6.05142216       2.73351527  F       0.00000000       0.00000000       0.00000000
O        9.52593517       8.29284677       7.95154545  T       0.00000000       0.00000000       0.00000000
O        3.17723643       1.60596896       3.96703054  F       0.00000000       0.00000000       0.00000000
O        9.52185402      11.26746211      13.65680413  T       0.00000000       0.00000000       0.00000000
O        1.57163058       9.36114741      12.53180472  T       0.00000000       0.00000000       0.00000000
O        4.76585465       3.58439162       2.73351527  F       0.00000000       0.00000000       0.00000000
O        1.57323986       6.92346648      12.76740324  T       0.00000000       0.00000000       0.00000000
O        3.17723643       1.60596896       1.50000000  F       0.00000000       0.00000000       0.00000000
O        0.00000000       8.02984482       3.96703054  F       0.00000000       0.00000000       0.00000000
O        1.58173358      10.06347182       9.51694134  T       0.00000000       0.00000000       0.00000000
O        0.00000000      11.24178275       4.71193793  F       0.00000000       0.00000000       0.00000000
O        1.58861822       3.58439162       2.73351527  F       0.00000000       0.00000000       0.00000000
O        1.58861822       6.05142216       2.73351527  F       0.00000000       0.00000000       0.00000000
O        0.00000000       1.60596896       3.96703054  F       0.00000000       0.00000000       0.00000000
O        0.00000000       1.60596896       1.50000000  F       0.00000000       0.00000000       0.00000000
O        1.58861510       0.37317604       6.08592568  F       0.00000000       0.00000000       0.00000000
O        1.58861475       2.83876150       6.08591621  F       0.00000000       0.00000000       0.00000000
O        0.00000677       4.81790638       7.22598148  F       0.00000000       0.00000000       0.00000000
O        6.35112129       1.36012601      10.39863020  T       0.00000000       0.00000000       0.00000000
O        6.35196548       1.87851588       7.94395484  T       0.00000000       0.00000000       0.00000000
O       -0.00519415       1.42164914      10.40306521  T       0.00000000       0.00000000       0.00000000
O        7.92727925       2.93826933      12.53344674  T       0.00000000       0.00000000       0.00000000
O        4.76907536       0.48701745      12.77052506  T       0.00000000       0.00000000       0.00000000
O        4.76064787       2.93595165      12.53226874  T       0.00000000       0.00000000       0.00000000
O        3.16416572       4.82065329      13.67880820  T       0.00000000       0.00000000       0.00000000
O        6.54819384      10.78128135      15.36802994  T       0.00000000       0.00000000       0.00000000
O        4.76585465      10.00826748       2.73351527  F       0.00000000       0.00000000       0.00000000
O        4.76585465      12.47529802       2.73351527  F       0.00000000       0.00000000       0.00000000
O        3.17723643       8.02984482       3.96703054  F       0.00000000       0.00000000       0.00000000
O        3.17723643       8.02984482       1.50000000  F       0.00000000       0.00000000       0.00000000
O        4.76583213       9.26262741       6.08592309  F       0.00000000       0.00000000       0.00000000
O        3.17722243      11.24178386       7.22601453  F       0.00000000       0.00000000       0.00000000
O        3.17723643      11.24178275       4.71193793  F       0.00000000       0.00000000       0.00000000
O        4.75395047      10.05747357       9.54180831  T       0.00000000       0.00000000       0.00000000
O        4.76545376      12.51872240       8.92999621  T       0.00000000       0.00000000       0.00000000
O        3.17415833       7.83456750      10.41308500  T       0.00000000       0.00000000       0.00000000
O        3.17213485       8.29456843       7.95011033  T       0.00000000       0.00000000       0.00000000
O        4.75238635       6.91369013      12.77688077  T       0.00000000       0.00000000       0.00000000
O        4.77216564       9.36575893      12.60184333  T       0.00000000       0.00000000       0.00000000
O        3.15639088      11.26802084      13.65668229  T       0.00000000       0.00000000       0.00000000
O        3.12780375      11.66462847      11.16463198  T       0.00000000       0.00000000       0.00000000
O        7.94309108       3.58439162       2.73351527  F       0.00000000       0.00000000       0.00000000
O        7.91884234       0.48992224      12.77056174  T       0.00000000       0.00000000       0.00000000
O        3.17757623       1.87896126       7.94649633  T       0.00000000       0.00000000       0.00000000
O        3.17329086       1.42223142      10.40082387  T       0.00000000       0.00000000       0.00000000
O        4.76583238       6.79706024       6.08593407  F       0.00000000       0.00000000       0.00000000
O        6.34098720       4.81522658      13.67914801  T       0.00000000       0.00000000       0.00000000
O        4.76236509       6.09666708       8.92857322  T       0.00000000       0.00000000       0.00000000
O        6.34484680       5.15555149      11.20566279  T       0.00000000       0.00000000       0.00000000
O        7.94309108      10.00826748       2.73351527  F       0.00000000       0.00000000       0.00000000
O        7.94309108      12.47529802       2.73351527  F       0.00000000       0.00000000       0.00000000
O        6.35447286       8.02984482       3.96703054  F       0.00000000       0.00000000       0.00000000
O        6.35447286       8.02984482       1.50000000  F       0.00000000       0.00000000       0.00000000
O        7.94309077       6.79706319       6.08592610  F       0.00000000       0.00000000       0.00000000
O        6.35446208      11.24178289       7.22597601  F       0.00000000       0.00000000       0.00000000
O        6.35447286      11.24178275       4.71193793  F       0.00000000       0.00000000       0.00000000
O        7.94396456      10.05895501       9.54501153  T       0.00000000       0.00000000       0.00000000
O        7.94309115       9.26262662       6.08591614  F       0.00000000       0.00000000       0.00000000
O        6.34708989       7.83444693      10.40558139  T       0.00000000       0.00000000       0.00000000
O        4.76463451       3.63522823       9.52723925  T       0.00000000       0.00000000       0.00000000
O        7.93275860      12.51915603       8.93119686  T       0.00000000       0.00000000       0.00000000
O        3.17723643       4.81790689       4.71193793  F       0.00000000       0.00000000       0.00000000
O        6.35447286       1.60596896       3.96703054  F       0.00000000       0.00000000       0.00000000
O        7.94309701       0.37317906       6.08592278  F       0.00000000       0.00000000       0.00000000
O        7.94309108       6.05142216       2.73351527  F       0.00000000       0.00000000       0.00000000
O        7.92465216       6.91472373      12.77552256  T       0.00000000       0.00000000       0.00000000
O        6.35154646       8.29499114       7.94630700  T       0.00000000       0.00000000       0.00000000
O        7.90485326       9.36901100      12.61156328  T       0.00000000       0.00000000       0.00000000
Pd       4.76586017      11.24177762       5.96678586  F       0.00000000       0.00000000       0.00000000
Pd       4.70305142      11.35238794      12.43094781  T       0.00000000       0.00000000       0.00000000
Pd       3.16939536       8.12172312      12.39549963  T       0.00000000       0.00000000       0.00000000
Pd       1.57416023      11.36929748      12.43859012  T       0.00000000       0.00000000       0.00000000
Pd       3.17725104       8.02984249       5.93124939  F       0.00000000       0.00000000       0.00000000
Pd       9.53167951       8.02984246       5.93125040  F       0.00000000       0.00000000       0.00000000
Pd       7.94309108       1.60596896       2.73351527  F       0.00000000       0.00000000       0.00000000
Pd       6.35447286       4.81790689       2.73351527  F       0.00000000       0.00000000       0.00000000
Pd       1.58862042      11.24178075       5.96678264  F       0.00000000       0.00000000       0.00000000
Pd       9.50650024       8.12491173      12.39798042  T       0.00000000       0.00000000       0.00000000
Pd       6.34419750       1.71484881      12.36509802  T       0.00000000       0.00000000       0.00000000
Pd       6.35446907       1.60596427       5.93125186  F       0.00000000       0.00000000       0.00000000
Pd       0.00000000      11.24178275       2.73351527  F       0.00000000       0.00000000       0.00000000
Pd       1.58861822       8.02984482       2.73351527  F       0.00000000       0.00000000       0.00000000
Pd       7.93593759       1.65738359       9.17008095  T       0.00000000       0.00000000       0.00000000
Pd       6.34960056       4.87253660       9.23407721  T       0.00000000       0.00000000       0.00000000
Pd       3.17723643      11.24178275       2.73351527  F       0.00000000       0.00000000       0.00000000
Pd       4.76585465       8.02984482       2.73351527  F       0.00000000       0.00000000       0.00000000
Pd       9.51785020       1.71145095      12.37984030  T       0.00000000       0.00000000       0.00000000
Pd       4.76007203       8.08260697       9.17422287  T       0.00000000       0.00000000       0.00000000
Pd       1.58235080       8.08097248       9.17959905  T       0.00000000       0.00000000       0.00000000
Pd       7.94307467       4.81790887       5.96677722  F       0.00000000       0.00000000       0.00000000
Pd       9.52896433      11.29873091       9.21880517  T       0.00000000       0.00000000       0.00000000
Pd       9.52498522       4.87249005       9.23437136  T       0.00000000       0.00000000       0.00000000
Pd       7.93223199       4.93188780      12.45181676  T       0.00000000       0.00000000       0.00000000
Pd       4.76585465       1.60596896       2.73351527  F       0.00000000       0.00000000       0.00000000
Pd       4.75261797       4.93166072      12.45137624  T       0.00000000       0.00000000       0.00000000
Pd       7.94307042      11.24177723       5.96677003  F       0.00000000       0.00000000       0.00000000
Pd       6.35446228       8.02984189       5.93125037  F       0.00000000       0.00000000       0.00000000
Pd       6.35447286      11.24178275       2.73351527  F       0.00000000       0.00000000       0.00000000
Pd       7.94309108       8.02984482       2.73351527  F       0.00000000       0.00000000       0.00000000
Pd       3.17061674       1.70777540      12.37822193  T       0.00000000       0.00000000       0.00000000
Pd       1.58491767       1.66389062       9.16850998  T       0.00000000       0.00000000       0.00000000
Pd       3.16802017      11.29737425       9.21890028  T       0.00000000       0.00000000       0.00000000
Pd       7.93777031       8.08247393       9.17636135  T       0.00000000       0.00000000       0.00000000
Pd       6.34881879      11.29274004       9.25249631  T       0.00000000       0.00000000       0.00000000
Pd       1.58861839       4.81790857       5.96677563  F       0.00000000       0.00000000       0.00000000
Pd       4.76586828       4.81790686       5.96677661  F       0.00000000       0.00000000       0.00000000
Pd       3.17364460       4.87456044       9.23404062  T       0.00000000       0.00000000       0.00000000
Pd       4.76644144       1.65747081       9.16985330  T       0.00000000       0.00000000       0.00000000
Pd       7.97864464      11.35579672      12.42913152  T       0.00000000       0.00000000       0.00000000
Pd       6.33811094       8.10973840      12.38877805  T       0.00000000       0.00000000       0.00000000
Pd       3.17725665       1.60596829       5.93125128  F       0.00000000       0.00000000       0.00000000
Pd       0.00000000       4.81790689       2.73351527  F       0.00000000       0.00000000       0.00000000
Pd       9.53168164       1.60596920       5.93125239  F       0.00000000       0.00000000       0.00000000
Pd       3.17723643       4.81790689       2.73351527  F       0.00000000       0.00000000       0.00000000
Pd       1.57674587       4.93531388      12.44829247  T       0.00000000       0.00000000       0.00000000
Pd       1.58861822       1.60596896       2.73351527  F       0.00000000       0.00000000       0.00000000
C        6.75681633       9.66530865      15.68545452  T       0.00000000       0.00000000       0.00000000
O        6.95162959       8.54708134      15.99875022  T       0.00000000       0.00000000       0.00000000
