146
Lattice="9.531709292017604 0.0 0.0 0.0 12.847751714415933 0.0 0.0 0.0 32.10284432209217" Properties=species:S:1:pos:R:3:move_mask:L:1:momenta:R:3 adsorbate_info="_JSON {\"site\": {\"coordinates\": [2.3829237923095636, 3.816427411585668, 13.154827866931567], \"connectivity\": 2, \"topology\": [2, 52], \"n_vector\": [-0.03718547890811538, -0.4040668685817047, 0.9139733069805428], \"h_vector\": [0.5788146861305087, 0.729779441665994, 0.36386195959637063], \"site_formula\": {\"O\": 2}}, \"smiles\": \"Cl[C]=O\", \"mdf\": 2.36971364866582, \"adsorbate_formula\": \"CO\"}" mace_E=-754.4583333943181 converged=T n_steps=200 d_min=3.1206404857347163 site_type=unknown dE_rel_meV=0 original_idx=29 rank=63 E_MACE=-754.0383551543149 pbc="T T T"
O        3.19281431       5.25222812      11.18659964  T       0.00000000       0.00000000       0.00000000
O        1.63075745       0.53624459      12.82816570  T       0.00000000       0.00000000       0.00000000
O        1.62662456       2.94348994      12.02725203  T       0.00000000       0.00000000       0.00000000
O        9.53353966       4.58361891      13.62725841  T       0.00000000       0.00000000       0.00000000
O        0.00891621       5.23156672      11.17977588  T       0.00000000       0.00000000       0.00000000
O        1.58861822      10.00826748       2.73351527  F       0.00000000       0.00000000       0.00000000
O        1.58861822      12.47529802       2.73351527  F       0.00000000       0.00000000       0.00000000
O        4.76584344       2.83874884       6.08591509  F       0.00000000       0.00000000       0.00000000
O        0.00000000       8.02984482       1.50000000  F       0.00000000       0.00000000       0.00000000
O        1.58861107       6.79705424       6.08592811  F       0.00000000       0.00000000       0.00000000
O        9.53642565       1.89739292       7.94880911  T       0.00000000       0.00000000       0.00000000
O        1.58861150       9.26263623       6.08591827  F       0.00000000       0.00000000       0.00000000
O        4.76583598       0.37317881       6.08593111  F       0.00000000       0.00000000       0.00000000
O        6.35278450      11.60442126      11.22072892  T       0.00000000       0.00000000       0.00000000
O        3.17723028       4.81790423       7.22598268  F       0.00000000       0.00000000       0.00000000
O        6.35447286       1.60596896       1.50000000  F       0.00000000       0.00000000       0.00000000
O        7.94309377       2.83875127       6.08591528  F       0.00000000       0.00000000       0.00000000
O        6.35447101       4.81790868       7.22598243  F       0.00000000       0.00000000       0.00000000
O        6.35447286       4.81790689       4.71193793  F       0.00000000       0.00000000       0.00000000
O        7.95073681       3.65794326       9.43760035  T       0.00000000       0.00000000       0.00000000
O        7.94013402       6.12757654       8.91678836  T       0.00000000       0.00000000       0.00000000
O        0.00000338      11.24178289       7.22597220  F       0.00000000       0.00000000       0.00000000
O        1.60009060       6.12789700       8.91513690  T       0.00000000       0.00000000       0.00000000
O        1.58706393       3.65624382       9.44901823  T       0.00000000       0.00000000       0.00000000
O        0.00000000       4.81790689       4.71193793  F       0.00000000       0.00000000       0.00000000
O        1.58652267      12.54010395       8.90877140  T       0.00000000       0.00000000       0.00000000
O        0.00505475       7.86366083      10.39069973  T       0.00000000       0.00000000       0.00000000
O        0.00684780      11.59380826      11.22323774  T       0.00000000       0.00000000       0.00000000
O        4.76585465       6.05142216       2.73351527  F       0.00000000       0.00000000       0.00000000
O        9.53479964       8.31111916       7.93965817  T       0.00000000       0.00000000       0.00000000
O        3.17723643       1.60596896       3.96703054  F       0.00000000       0.00000000       0.00000000
O        9.53162020      11.24446033      13.70168685  T       0.00000000       0.00000000       0.00000000
O        1.59057153       9.36113422      12.53077267  T       0.00000000       0.00000000       0.00000000
O        4.76585465       3.58439162       2.73351527  F       0.00000000       0.00000000       0.00000000
O        1.59199040       6.90155107      12.80150859  T       0.00000000       0.00000000       0.00000000
O        3.17723643       1.60596896       1.50000000  F       0.00000000       0.00000000       0.00000000
O        0.00000000       8.02984482       3.96703054  F       0.00000000       0.00000000       0.00000000
O        1.59003124      10.08430071       9.52091151  T       0.00000000       0.00000000       0.00000000
O        0.00000000      11.24178275       4.71193793  F       0.00000000       0.00000000       0.00000000
O        1.58861822       3.58439162       2.73351527  F       0.00000000       0.00000000       0.00000000
O        1.58861822       6.05142216       2.73351527  F       0.00000000       0.00000000       0.00000000
O        0.00000000       1.60596896       3.96703054  F       0.00000000       0.00000000       0.00000000
O        0.00000000       1.60596896       1.50000000  F       0.00000000       0.00000000       0.00000000
O        1.58861510       0.37317604       6.08592568  F       0.00000000       0.00000000       0.00000000
O        1.58861475       2.83876150       6.08591621  F       0.00000000       0.00000000       0.00000000
O        0.00000677       4.81790638       7.22598148  F       0.00000000       0.00000000       0.00000000
O        6.35587852       1.32095453      10.36735815  T       0.00000000       0.00000000       0.00000000
O        6.36501936       1.90068666       7.94459259  T       0.00000000       0.00000000       0.00000000
O        0.01041964       1.30939709      10.41371725  T       0.00000000       0.00000000       0.00000000
O        7.91998278       2.94599306      11.98525501  T       0.00000000       0.00000000       0.00000000
O        4.77696994       0.51061828      12.83454269  T       0.00000000       0.00000000       0.00000000
O        4.77668247       2.93344858      12.33479943  T       0.00000000       0.00000000       0.00000000
O        3.17049428       4.70215922      13.64145898  T       0.00000000       0.00000000       0.00000000
O        6.36437052      11.23693883      13.70356580  T       0.00000000       0.00000000       0.00000000
O        4.76585465      10.00826748       2.73351527  F       0.00000000       0.00000000       0.00000000
O        4.76585465      12.47529802       2.73351527  F       0.00000000       0.00000000       0.00000000
O        3.17723643       8.02984482       3.96703054  F       0.00000000       0.00000000       0.00000000
O        3.17723643       8.02984482       1.50000000  F       0.00000000       0.00000000       0.00000000
O        4.76583213       9.26262741       6.08592309  F       0.00000000       0.00000000       0.00000000
O        3.17722243      11.24178386       7.22601453  F       0.00000000       0.00000000       0.00000000
O        3.17723643      11.24178275       4.71193793  F       0.00000000       0.00000000       0.00000000
O        4.77041455      10.08790446       9.51662243  T       0.00000000       0.00000000       0.00000000
O        4.76647033      12.54762205       8.91956109  T       0.00000000       0.00000000       0.00000000
O        3.19132805       7.87956438      10.38643358  T       0.00000000       0.00000000       0.00000000
O        3.18803182       8.31761779       7.94324239  T       0.00000000       0.00000000       0.00000000
O        4.77531295       6.90922445      12.78291698  T       0.00000000       0.00000000       0.00000000
O        4.77786394       9.35474353      12.53536517  T       0.00000000       0.00000000       0.00000000
O        3.17915733      11.21557270      13.71015021  T       0.00000000       0.00000000       0.00000000
O        3.18363099      11.59507199      11.22477255  T       0.00000000       0.00000000       0.00000000
O        7.94309108       3.58439162       2.73351527  F       0.00000000       0.00000000       0.00000000
O        7.91925246       0.54342349      12.80511202  T       0.00000000       0.00000000       0.00000000
O        3.16612596       1.89816924       7.94773284  T       0.00000000       0.00000000       0.00000000
O        3.17898318       1.31758511      10.36833338  T       0.00000000       0.00000000       0.00000000
O        4.76583238       6.79706024       6.08593407  F       0.00000000       0.00000000       0.00000000
O        6.37190983       4.69187146      13.63204064  T       0.00000000       0.00000000       0.00000000
O        4.76995180       6.12442215       8.93042693  T       0.00000000       0.00000000       0.00000000
O        6.34701913       5.25079757      11.18339144  T       0.00000000       0.00000000       0.00000000
O        7.94309108      10.00826748       2.73351527  F       0.00000000       0.00000000       0.00000000
O        7.94309108      12.47529802       2.73351527  F       0.00000000       0.00000000       0.00000000
O        6.35447286       8.02984482       3.96703054  F       0.00000000       0.00000000       0.00000000
O        6.35447286       8.02984482       1.50000000  F       0.00000000       0.00000000       0.00000000
O        7.94309077       6.79706319       6.08592610  F       0.00000000       0.00000000       0.00000000
O        6.35446208      11.24178289       7.22597601  F       0.00000000       0.00000000       0.00000000
O        6.35447286      11.24178275       4.71193793  F       0.00000000       0.00000000       0.00000000
O        7.94857566      10.08690954       9.52003632  T       0.00000000       0.00000000       0.00000000
O        7.94309115       9.26262662       6.08591614  F       0.00000000       0.00000000       0.00000000
O        6.35496479       7.87986293      10.38978655  T       0.00000000       0.00000000       0.00000000
O        4.76686701       3.65203881       9.52158481  T       0.00000000       0.00000000       0.00000000
O        7.95271564      12.54332272       8.90835061  T       0.00000000       0.00000000       0.00000000
O        3.17723643       4.81790689       4.71193793  F       0.00000000       0.00000000       0.00000000
O        6.35447286       1.60596896       3.96703054  F       0.00000000       0.00000000       0.00000000
O        7.94309701       0.37317906       6.08592278  F       0.00000000       0.00000000       0.00000000
O        7.94309108       6.05142216       2.73351527  F       0.00000000       0.00000000       0.00000000
O        7.94556280       6.90365557      12.79883436  T       0.00000000       0.00000000       0.00000000
O        6.35586464       8.31921010       7.93884608  T       0.00000000       0.00000000       0.00000000
O        7.94708856       9.35553589      12.52927783  T       0.00000000       0.00000000       0.00000000
Pd       4.76586017      11.24177762       5.96678586  F       0.00000000       0.00000000       0.00000000
Pd       4.76974563      11.36131651      12.48461685  T       0.00000000       0.00000000       0.00000000
Pd       3.18095197       8.12265835      12.38069222  T       0.00000000       0.00000000       0.00000000
Pd       1.59435098      11.36502126      12.48252397  T       0.00000000       0.00000000       0.00000000
Pd       3.17725104       8.02984249       5.93124939  F       0.00000000       0.00000000       0.00000000
Pd       9.53167951       8.02984246       5.93125040  F       0.00000000       0.00000000       0.00000000
Pd       7.94309108       1.60596896       2.73351527  F       0.00000000       0.00000000       0.00000000
Pd       6.35447286       4.81790689       2.73351527  F       0.00000000       0.00000000       0.00000000
Pd       1.58862042      11.24178075       5.96678264  F       0.00000000       0.00000000       0.00000000
Pd       9.53204319       8.12010167      12.37292928  T       0.00000000       0.00000000       0.00000000
Pd       6.35591065       1.70083311      12.33386573  T       0.00000000       0.00000000       0.00000000
Pd       6.35446907       1.60596427       5.93125186  F       0.00000000       0.00000000       0.00000000
Pd       0.00000000      11.24178275       2.73351527  F       0.00000000       0.00000000       0.00000000
Pd       1.58861822       8.02984482       2.73351527  F       0.00000000       0.00000000       0.00000000
Pd       7.95590892       1.66033664       9.17279613  T       0.00000000       0.00000000       0.00000000
Pd       6.35133603       4.89803556       9.22734960  T       0.00000000       0.00000000       0.00000000
Pd       3.17723643      11.24178275       2.73351527  F       0.00000000       0.00000000       0.00000000
Pd       4.76585465       8.02984482       2.73351527  F       0.00000000       0.00000000       0.00000000
Pd       9.54486637       1.77625646      12.38604339  T       0.00000000       0.00000000       0.00000000
Pd       4.77404031       8.11353850       9.15972753  T       0.00000000       0.00000000       0.00000000
Pd       1.59704011       8.10818125       9.16430060  T       0.00000000       0.00000000       0.00000000
Pd       7.94307467       4.81790887       5.96677722  F       0.00000000       0.00000000       0.00000000
Pd       9.53546113      11.32224790       9.23439272  T       0.00000000       0.00000000       0.00000000
Pd       9.53638164       4.90553291       9.22555133  T       0.00000000       0.00000000       0.00000000
Pd       7.93516094       4.89278700      12.40759678  T       0.00000000       0.00000000       0.00000000
Pd       4.76585465       1.60596896       2.73351527  F       0.00000000       0.00000000       0.00000000
Pd       4.77017744       4.92585994      12.42385592  T       0.00000000       0.00000000       0.00000000
Pd       7.94307042      11.24177723       5.96677003  F       0.00000000       0.00000000       0.00000000
Pd       6.35446228       8.02984189       5.93125037  F       0.00000000       0.00000000       0.00000000
Pd       6.35447286      11.24178275       2.73351527  F       0.00000000       0.00000000       0.00000000
Pd       7.94309108       8.02984482       2.73351527  F       0.00000000       0.00000000       0.00000000
Pd       3.19583767       1.69869783      12.34511645  T       0.00000000       0.00000000       0.00000000
Pd       1.58110685       1.65980283       9.17123277  T       0.00000000       0.00000000       0.00000000
Pd       3.17971394      11.32251591       9.23989214  T       0.00000000       0.00000000       0.00000000
Pd       7.94628551       8.10866164       9.16427618  T       0.00000000       0.00000000       0.00000000
Pd       6.35725803      11.32297157       9.23952799  T       0.00000000       0.00000000       0.00000000
Pd       1.58861839       4.81790857       5.96677563  F       0.00000000       0.00000000       0.00000000
Pd       4.76586828       4.81790686       5.96677661  F       0.00000000       0.00000000       0.00000000
Pd       3.18458831       4.89827158       9.23164326  T       0.00000000       0.00000000       0.00000000
Pd       4.76633165       1.67330956       9.15739936  T       0.00000000       0.00000000       0.00000000
Pd       7.94423943      11.36909752      12.47417277  T       0.00000000       0.00000000       0.00000000
Pd       6.35916187       8.11918243      12.37577070  T       0.00000000       0.00000000       0.00000000
Pd       3.17725665       1.60596829       5.93125128  F       0.00000000       0.00000000       0.00000000
Pd       0.00000000       4.81790689       2.73351527  F       0.00000000       0.00000000       0.00000000
Pd       9.53168164       1.60596920       5.93125239  F       0.00000000       0.00000000       0.00000000
Pd       3.17723643       4.81790689       2.73351527  F       0.00000000       0.00000000       0.00000000
Pd       1.60652605       4.90239967      12.41379952  T       0.00000000       0.00000000       0.00000000
Pd       1.58861822       1.60596896       2.73351527  F       0.00000000       0.00000000       0.00000000
C       -0.10886326       2.52416050      14.22670606  T       0.00000000       0.00000000       0.00000000
O       -0.28561579       2.57396178      15.36241628  T       0.00000000       0.00000000       0.00000000
