146
Lattice="9.531709292017604 0.0 0.0 0.0 12.847751714415933 0.0 0.0 0.0 32.10284432209217" Properties=species:S:1:pos:R:3:move_mask:L:1:momenta:R:3 adsorbate_info="_JSON {\"site\": {\"coordinates\": [2.3829315217659905, 12.243264278421805, 13.154863340040237], \"connectivity\": 2, \"topology\": [1, 67], \"n_vector\": [-0.025520597702782078, 0.3899835215992744, 0.9204681156748022], \"h_vector\": [0.5788146812797368, -0.7297744066412128, 0.363872065630906], \"site_formula\": {\"O\": 2}}, \"smiles\": \"Cl[C]=O\", \"mdf\": 2.412106498815641, \"adsorbate_formula\": \"CO\"}" mace_E=-754.4718998380712 converged=T n_steps=200 d_min=3.366451461109353 site_type=atop dE_rel_meV=0 original_idx=34 rank=3 E_MACE=-756.5779673436017 pbc="T T T"
O        3.18503413       4.48131765      11.22310416  T       0.00000000       0.00000000       0.00000000
O        1.65119816       0.26035935      11.99522999  T       0.00000000       0.00000000       0.00000000
O        1.62574749       2.69706769      12.72109205  T       0.00000000       0.00000000       0.00000000
O        9.53288095       4.82252101      13.68827509  T       0.00000000       0.00000000       0.00000000
O       -0.00028508       4.51238129      11.21496014  T       0.00000000       0.00000000       0.00000000
O        1.58861822      10.00826748       2.73351527  F       0.00000000       0.00000000       0.00000000
O        1.58861822      12.47529802       2.73351527  F       0.00000000       0.00000000       0.00000000
O        4.76584344       2.83874884       6.08591509  F       0.00000000       0.00000000       0.00000000
O        0.00000000       8.02984482       1.50000000  F       0.00000000       0.00000000       0.00000000
O        1.58861107       6.79705424       6.08592811  F       0.00000000       0.00000000       0.00000000
O        9.53241411       1.32370263       7.92879113  T       0.00000000       0.00000000       0.00000000
O        1.58861150       9.26263623       6.08591827  F       0.00000000       0.00000000       0.00000000
O        4.76583598       0.37317881       6.08593111  F       0.00000000       0.00000000       0.00000000
O        6.34895558      10.81140495      11.21246314  T       0.00000000       0.00000000       0.00000000
O        3.17723028       4.81790423       7.22598268  F       0.00000000       0.00000000       0.00000000
O        6.35447286       1.60596896       1.50000000  F       0.00000000       0.00000000       0.00000000
O        7.94309377       2.83875127       6.08591528  F       0.00000000       0.00000000       0.00000000
O        6.35447101       4.81790868       7.22598243  F       0.00000000       0.00000000       0.00000000
O        6.35447286       4.81790689       4.71193793  F       0.00000000       0.00000000       0.00000000
O        7.93895084       3.55882101       8.91535783  T       0.00000000       0.00000000       0.00000000
O        7.93583363       5.99760219       9.52696086  T       0.00000000       0.00000000       0.00000000
O        0.00000338      11.24178289       7.22597220  F       0.00000000       0.00000000       0.00000000
O        1.59432457       5.99773361       9.52936308  T       0.00000000       0.00000000       0.00000000
O        1.59104035       3.55832735       8.91567930  T       0.00000000       0.00000000       0.00000000
O        0.00000000       4.81790689       4.71193793  F       0.00000000       0.00000000       0.00000000
O        1.59099885      12.42768524       9.47340960  T       0.00000000       0.00000000       0.00000000
O       -0.00113864       8.21374880      10.41496466  T       0.00000000       0.00000000       0.00000000
O       -0.00191438      10.90066836      11.21373482  T       0.00000000       0.00000000       0.00000000
O        4.76585465       6.05142216       2.73351527  F       0.00000000       0.00000000       0.00000000
O        9.53585950       7.76237156       7.96276073  T       0.00000000       0.00000000       0.00000000
O        3.17723643       1.60596896       3.96703054  F       0.00000000       0.00000000       0.00000000
O        9.53300054      11.53385321      13.68570252  T       0.00000000       0.00000000       0.00000000
O        1.57798491       9.16885166      12.80973282  T       0.00000000       0.00000000       0.00000000
O        4.76585465       3.58439162       2.73351527  F       0.00000000       0.00000000       0.00000000
O        1.59887632       6.71474901      12.56334108  T       0.00000000       0.00000000       0.00000000
O        3.17723643       1.60596896       1.50000000  F       0.00000000       0.00000000       0.00000000
O        0.00000000       8.02984482       3.96703054  F       0.00000000       0.00000000       0.00000000
O        1.59016896       9.96426828       8.92802274  T       0.00000000       0.00000000       0.00000000
O        0.00000000      11.24178275       4.71193793  F       0.00000000       0.00000000       0.00000000
O        1.58861822       3.58439162       2.73351527  F       0.00000000       0.00000000       0.00000000
O        1.58861822       6.05142216       2.73351527  F       0.00000000       0.00000000       0.00000000
O        0.00000000       1.60596896       3.96703054  F       0.00000000       0.00000000       0.00000000
O        0.00000000       1.60596896       1.50000000  F       0.00000000       0.00000000       0.00000000
O        1.58861510       0.37317604       6.08592568  F       0.00000000       0.00000000       0.00000000
O        1.58861475       2.83876150       6.08591621  F       0.00000000       0.00000000       0.00000000
O        0.00000677       4.81790638       7.22598148  F       0.00000000       0.00000000       0.00000000
O        6.35957916       1.86449212      10.36737073  T       0.00000000       0.00000000       0.00000000
O        6.35113501       1.33217198       7.93774120  T       0.00000000       0.00000000       0.00000000
O       -0.00508543       1.83327770      10.39197442  T       0.00000000       0.00000000       0.00000000
O        7.91574593       2.69437028      12.73375727  T       0.00000000       0.00000000       0.00000000
O        4.76163582       0.30436770      12.42904887  T       0.00000000       0.00000000       0.00000000
O        4.75642950       2.72943438      12.81253919  T       0.00000000       0.00000000       0.00000000
O        3.17214675       4.84040042      13.70015312  T       0.00000000       0.00000000       0.00000000
O        6.35663745      11.32135633      13.68919933  T       0.00000000       0.00000000       0.00000000
O        4.76585465      10.00826748       2.73351527  F       0.00000000       0.00000000       0.00000000
O        4.76585465      12.47529802       2.73351527  F       0.00000000       0.00000000       0.00000000
O        3.17723643       8.02984482       3.96703054  F       0.00000000       0.00000000       0.00000000
O        3.17723643       8.02984482       1.50000000  F       0.00000000       0.00000000       0.00000000
O        4.76583213       9.26262741       6.08592309  F       0.00000000       0.00000000       0.00000000
O        3.17722243      11.24178386       7.22601453  F       0.00000000       0.00000000       0.00000000
O        3.17723643      11.24178275       4.71193793  F       0.00000000       0.00000000       0.00000000
O        4.76613626       9.95724752       8.91766956  T       0.00000000       0.00000000       0.00000000
O        4.76722702      12.42146190       9.51921119  T       0.00000000       0.00000000       0.00000000
O        3.18841844       8.20621667      10.42394071  T       0.00000000       0.00000000       0.00000000
O        3.18004390       7.76097318       7.96083100  T       0.00000000       0.00000000       0.00000000
O        4.76466757       6.72674227      12.53316141  T       0.00000000       0.00000000       0.00000000
O        4.76451790       9.17364489      12.77014816  T       0.00000000       0.00000000       0.00000000
O        3.17159030      11.31247115      13.68156726  T       0.00000000       0.00000000       0.00000000
O        3.19160554      10.82401212      11.21132471  T       0.00000000       0.00000000       0.00000000
O        7.94309108       3.58439162       2.73351527  F       0.00000000       0.00000000       0.00000000
O        7.88490542       0.27210585      12.08267512  T       0.00000000       0.00000000       0.00000000
O        3.17840270       1.32564456       7.93132897  T       0.00000000       0.00000000       0.00000000
O        3.17298650       1.86384279      10.35619781  T       0.00000000       0.00000000       0.00000000
O        4.76583238       6.79706024       6.08593407  F       0.00000000       0.00000000       0.00000000
O        6.36417469       4.83116511      13.70075813  T       0.00000000       0.00000000       0.00000000
O        4.76895115       6.00397869       9.52574478  T       0.00000000       0.00000000       0.00000000
O        6.34550510       4.47967613      11.22347404  T       0.00000000       0.00000000       0.00000000
O        7.94309108      10.00826748       2.73351527  F       0.00000000       0.00000000       0.00000000
O        7.94309108      12.47529802       2.73351527  F       0.00000000       0.00000000       0.00000000
O        6.35447286       8.02984482       3.96703054  F       0.00000000       0.00000000       0.00000000
O        6.35447286       8.02984482       1.50000000  F       0.00000000       0.00000000       0.00000000
O        7.94309077       6.79706319       6.08592610  F       0.00000000       0.00000000       0.00000000
O        6.35446208      11.24178289       7.22597601  F       0.00000000       0.00000000       0.00000000
O        6.35447286      11.24178275       4.71193793  F       0.00000000       0.00000000       0.00000000
O        7.94057615       9.96493920       8.93059156  T       0.00000000       0.00000000       0.00000000
O        7.94309115       9.26262662       6.08591614  F       0.00000000       0.00000000       0.00000000
O        6.34883880       8.20940142      10.42242113  T       0.00000000       0.00000000       0.00000000
O        4.76623376       3.55928246       8.92101378  T       0.00000000       0.00000000       0.00000000
O        7.93592513      12.43338378       9.47294966  T       0.00000000       0.00000000       0.00000000
O        3.17723643       4.81790689       4.71193793  F       0.00000000       0.00000000       0.00000000
O        6.35447286       1.60596896       3.96703054  F       0.00000000       0.00000000       0.00000000
O        7.94309701       0.37317906       6.08592278  F       0.00000000       0.00000000       0.00000000
O        7.94309108       6.05142216       2.73351527  F       0.00000000       0.00000000       0.00000000
O        7.93769267       6.71857409      12.55525121  T       0.00000000       0.00000000       0.00000000
O        6.35207181       7.76317054       7.95554306  T       0.00000000       0.00000000       0.00000000
O        7.94954255       9.17092226      12.80636932  T       0.00000000       0.00000000       0.00000000
Pd       4.76586017      11.24177762       5.96678586  F       0.00000000       0.00000000       0.00000000
Pd       4.76928465      11.15603765      12.45915890  T       0.00000000       0.00000000       0.00000000
Pd       3.17416993       7.96376036      12.39038024  T       0.00000000       0.00000000       0.00000000
Pd       1.60594005      11.17474568      12.43745272  T       0.00000000       0.00000000       0.00000000
Pd       3.17725104       8.02984249       5.93124939  F       0.00000000       0.00000000       0.00000000
Pd       9.53167951       8.02984246       5.93125040  F       0.00000000       0.00000000       0.00000000
Pd       7.94309108       1.60596896       2.73351527  F       0.00000000       0.00000000       0.00000000
Pd       6.35447286       4.81790689       2.73351527  F       0.00000000       0.00000000       0.00000000
Pd       1.58862042      11.24178075       5.96678264  F       0.00000000       0.00000000       0.00000000
Pd       9.53311114       7.94230229      12.38534908  T       0.00000000       0.00000000       0.00000000
Pd       6.33418645       1.53159177      12.31846998  T       0.00000000       0.00000000       0.00000000
Pd       6.35446907       1.60596427       5.93125186  F       0.00000000       0.00000000       0.00000000
Pd       0.00000000      11.24178275       2.73351527  F       0.00000000       0.00000000       0.00000000
Pd       1.58861822       8.02984482       2.73351527  F       0.00000000       0.00000000       0.00000000
Pd       7.95019156       1.57460177       9.14907106  T       0.00000000       0.00000000       0.00000000
Pd       6.35096012       4.77226154       9.24246571  T       0.00000000       0.00000000       0.00000000
Pd       3.17723643      11.24178275       2.73351527  F       0.00000000       0.00000000       0.00000000
Pd       4.76585465       8.02984482       2.73351527  F       0.00000000       0.00000000       0.00000000
Pd       9.54961397       1.44117190      12.39115134  T       0.00000000       0.00000000       0.00000000
Pd       4.76824755       7.97469235       9.18634747  T       0.00000000       0.00000000       0.00000000
Pd       1.59356743       7.97481214       9.19026839  T       0.00000000       0.00000000       0.00000000
Pd       7.94307467       4.81790887       5.96677722  F       0.00000000       0.00000000       0.00000000
Pd       9.53038366      11.19337937       9.23717739  T       0.00000000       0.00000000       0.00000000
Pd       9.53123768       4.77038555       9.23508728  T       0.00000000       0.00000000       0.00000000
Pd       7.94209670       4.70879870      12.46525320  T       0.00000000       0.00000000       0.00000000
Pd       4.76585465       1.60596896       2.73351527  F       0.00000000       0.00000000       0.00000000
Pd       4.76494652       4.72174621      12.48015537  T       0.00000000       0.00000000       0.00000000
Pd       7.94307042      11.24177723       5.96677003  F       0.00000000       0.00000000       0.00000000
Pd       6.35446228       8.02984189       5.93125037  F       0.00000000       0.00000000       0.00000000
Pd       6.35447286      11.24178275       2.73351527  F       0.00000000       0.00000000       0.00000000
Pd       7.94309108       8.02984482       2.73351527  F       0.00000000       0.00000000       0.00000000
Pd       3.19238049       1.52413840      12.30424861  T       0.00000000       0.00000000       0.00000000
Pd       1.58011016       1.57105170       9.14589456  T       0.00000000       0.00000000       0.00000000
Pd       3.18013506      11.18036384       9.23596111  T       0.00000000       0.00000000       0.00000000
Pd       7.94020137       7.97368321       9.18446231  T       0.00000000       0.00000000       0.00000000
Pd       6.35128112      11.18063922       9.23539173  T       0.00000000       0.00000000       0.00000000
Pd       1.58861839       4.81790857       5.96677563  F       0.00000000       0.00000000       0.00000000
Pd       4.76586828       4.81790686       5.96677661  F       0.00000000       0.00000000       0.00000000
Pd       3.18132521       4.77254306       9.24401568  T       0.00000000       0.00000000       0.00000000
Pd       4.76552685       1.56443363       9.15223744  T       0.00000000       0.00000000       0.00000000
Pd       7.92540691      11.18304472      12.44617723  T       0.00000000       0.00000000       0.00000000
Pd       6.35545290       7.96473878      12.38785128  T       0.00000000       0.00000000       0.00000000
Pd       3.17725665       1.60596829       5.93125128  F       0.00000000       0.00000000       0.00000000
Pd       0.00000000       4.81790689       2.73351527  F       0.00000000       0.00000000       0.00000000
Pd       9.53168164       1.60596920       5.93125239  F       0.00000000       0.00000000       0.00000000
Pd       3.17723643       4.81790689       2.73351527  F       0.00000000       0.00000000       0.00000000
Pd       1.59104299       4.71307156      12.46237795  T       0.00000000       0.00000000       0.00000000
Pd       1.58861822       1.60596896       2.73351527  F       0.00000000       0.00000000       0.00000000
C        0.03399180      13.53371945      14.21634781  T       0.00000000       0.00000000       0.00000000
O        0.02322559      13.68146070      15.37244245  T       0.00000000       0.00000000       0.00000000
