146
Lattice="9.531709292017604 0.0 0.0 0.0 12.847751714415933 0.0 0.0 0.0 32.10284432209217" Properties=species:S:1:pos:R:3:move_mask:L:1:momenta:R:3 adsorbate_info="_JSON {\"site\": {\"coordinates\": [3.9715374157881866, 7.425358867353664, 12.501135768186003], \"connectivity\": 2, \"topology\": [65, 98], \"n_vector\": [0.013269501397335733, 0.10703203983441938, 0.9941670195603701], \"h_vector\": [0.7864199738626593, -0.5984852375664755, 0.1528366615863271], \"site_formula\": {\"O\": 1, \"Pd\": 1}}, \"smiles\": \"Cl[C]=O\", \"mdf\": 2.2268927585021925, \"adsorbate_formula\": \"CO\"}" mace_E=-754.4264514785682 converged=T n_steps=200 d_min=3.0830894931853554 site_type=unknown dE_rel_meV=0 original_idx=49 rank=64 E_MACE=-754.0353490945672 pbc="T T T"
O        3.17847043       5.14585329      11.20734770  T       0.00000000       0.00000000       0.00000000
O        1.59400064       0.46461139      12.81428184  T       0.00000000       0.00000000       0.00000000
O        1.59259567       2.91049197      12.53539480  T       0.00000000       0.00000000       0.00000000
O        9.53825139       4.77310388      13.68402337  T       0.00000000       0.00000000       0.00000000
O       -0.00418169       5.15444650      11.21073908  T       0.00000000       0.00000000       0.00000000
O        1.58861822      10.00826748       2.73351527  F       0.00000000       0.00000000       0.00000000
O        1.58861822      12.47529802       2.73351527  F       0.00000000       0.00000000       0.00000000
O        4.76584344       2.83874884       6.08591509  F       0.00000000       0.00000000       0.00000000
O        0.00000000       8.02984482       1.50000000  F       0.00000000       0.00000000       0.00000000
O        1.58861107       6.79705424       6.08592811  F       0.00000000       0.00000000       0.00000000
O        9.53232414       1.88156370       7.94930008  T       0.00000000       0.00000000       0.00000000
O        1.58861150       9.26263623       6.08591827  F       0.00000000       0.00000000       0.00000000
O        4.76583598       0.37317881       6.08593111  F       0.00000000       0.00000000       0.00000000
O        6.36221360      11.64332367      11.19602293  T       0.00000000       0.00000000       0.00000000
O        3.17723028       4.81790423       7.22598268  F       0.00000000       0.00000000       0.00000000
O        6.35447286       1.60596896       1.50000000  F       0.00000000       0.00000000       0.00000000
O        7.94309377       2.83875127       6.08591528  F       0.00000000       0.00000000       0.00000000
O        6.35447101       4.81790868       7.22598243  F       0.00000000       0.00000000       0.00000000
O        6.35447286       4.81790689       4.71193793  F       0.00000000       0.00000000       0.00000000
O        7.94343318       3.63379450       9.53246760  T       0.00000000       0.00000000       0.00000000
O        7.94321178       6.08845253       8.91658292  T       0.00000000       0.00000000       0.00000000
O        0.00000338      11.24178289       7.22597220  F       0.00000000       0.00000000       0.00000000
O        1.59312147       6.08925637       8.92847115  T       0.00000000       0.00000000       0.00000000
O        1.58857635       3.63250190       9.53811396  T       0.00000000       0.00000000       0.00000000
O        0.00000000       4.81790689       4.71193793  F       0.00000000       0.00000000       0.00000000
O        1.58760236      12.52580320       8.91994795  T       0.00000000       0.00000000       0.00000000
O       -0.00567915       7.77177762      10.37210732  T       0.00000000       0.00000000       0.00000000
O       -0.00460345      11.64256718      11.19673858  T       0.00000000       0.00000000       0.00000000
O        4.76585465       6.05142216       2.73351527  F       0.00000000       0.00000000       0.00000000
O        9.54442589       8.30283620       7.94339683  T       0.00000000       0.00000000       0.00000000
O        3.17723643       1.60596896       3.96703054  F       0.00000000       0.00000000       0.00000000
O        9.54200865      11.14763169      13.66100646  T       0.00000000       0.00000000       0.00000000
O        1.55517027       9.35804544      12.07048288  T       0.00000000       0.00000000       0.00000000
O        4.76585465       3.58439162       2.73351527  F       0.00000000       0.00000000       0.00000000
O        1.54493640       6.91925817      12.78184001  T       0.00000000       0.00000000       0.00000000
O        3.17723643       1.60596896       1.50000000  F       0.00000000       0.00000000       0.00000000
O        0.00000000       8.02984482       3.96703054  F       0.00000000       0.00000000       0.00000000
O        1.58856408      10.06416649       9.47428759  T       0.00000000       0.00000000       0.00000000
O        0.00000000      11.24178275       4.71193793  F       0.00000000       0.00000000       0.00000000
O        1.58861822       3.58439162       2.73351527  F       0.00000000       0.00000000       0.00000000
O        1.58861822       6.05142216       2.73351527  F       0.00000000       0.00000000       0.00000000
O        0.00000000       1.60596896       3.96703054  F       0.00000000       0.00000000       0.00000000
O        0.00000000       1.60596896       1.50000000  F       0.00000000       0.00000000       0.00000000
O        1.58861510       0.37317604       6.08592568  F       0.00000000       0.00000000       0.00000000
O        1.58861475       2.83876150       6.08591621  F       0.00000000       0.00000000       0.00000000
O        0.00000677       4.81790638       7.22598148  F       0.00000000       0.00000000       0.00000000
O        6.35477861       1.40482931      10.40520773  T       0.00000000       0.00000000       0.00000000
O        6.35480269       1.88160269       7.94845968  T       0.00000000       0.00000000       0.00000000
O        0.00023063       1.40735974      10.40588888  T       0.00000000       0.00000000       0.00000000
O        7.94293172       2.90914110      12.52481494  T       0.00000000       0.00000000       0.00000000
O        4.76110755       0.46537528      12.81258002  T       0.00000000       0.00000000       0.00000000
O        4.76181610       2.90993058      12.53746815  T       0.00000000       0.00000000       0.00000000
O        3.17887568       4.81265207      13.67774039  T       0.00000000       0.00000000       0.00000000
O        6.34620899      11.14165514      13.65996301  T       0.00000000       0.00000000       0.00000000
O        4.76585465      10.00826748       2.73351527  F       0.00000000       0.00000000       0.00000000
O        4.76585465      12.47529802       2.73351527  F       0.00000000       0.00000000       0.00000000
O        3.17723643       8.02984482       3.96703054  F       0.00000000       0.00000000       0.00000000
O        3.17723643       8.02984482       1.50000000  F       0.00000000       0.00000000       0.00000000
O        4.76583213       9.26262741       6.08592309  F       0.00000000       0.00000000       0.00000000
O        3.17722243      11.24178386       7.22601453  F       0.00000000       0.00000000       0.00000000
O        3.17723643      11.24178275       4.71193793  F       0.00000000       0.00000000       0.00000000
O        4.76643048      10.06410117       9.46917993  T       0.00000000       0.00000000       0.00000000
O        4.76721182      12.52579496       8.92240369  T       0.00000000       0.00000000       0.00000000
O        3.17829114       7.79589755      10.43612386  T       0.00000000       0.00000000       0.00000000
O        3.17706425       8.31335371       7.95320626  T       0.00000000       0.00000000       0.00000000
O        4.81512744       6.91863640      12.77898470  T       0.00000000       0.00000000       0.00000000
O        4.80522559       9.35779764      12.07086564  T       0.00000000       0.00000000       0.00000000
O        3.17978641      11.05127423      13.65198886  T       0.00000000       0.00000000       0.00000000
O        3.17808039      11.62129663      11.19273816  T       0.00000000       0.00000000       0.00000000
O        7.94309108       3.58439162       2.73351527  F       0.00000000       0.00000000       0.00000000
O        7.94362559       0.47456251      12.79712687  T       0.00000000       0.00000000       0.00000000
O        3.17731437       1.88065812       7.94834364  T       0.00000000       0.00000000       0.00000000
O        3.17770207       1.40375683      10.40766342  T       0.00000000       0.00000000       0.00000000
O        4.76583238       6.79706024       6.08593407  F       0.00000000       0.00000000       0.00000000
O        6.35115854       4.77083055      13.68394998  T       0.00000000       0.00000000       0.00000000
O        4.76188923       6.08868313       8.92929099  T       0.00000000       0.00000000       0.00000000
O        6.36133329       5.15391652      11.21089296  T       0.00000000       0.00000000       0.00000000
O        7.94309108      10.00826748       2.73351527  F       0.00000000       0.00000000       0.00000000
O        7.94309108      12.47529802       2.73351527  F       0.00000000       0.00000000       0.00000000
O        6.35447286       8.02984482       3.96703054  F       0.00000000       0.00000000       0.00000000
O        6.35447286       8.02984482       1.50000000  F       0.00000000       0.00000000       0.00000000
O        7.94309077       6.79706319       6.08592610  F       0.00000000       0.00000000       0.00000000
O        6.35446208      11.24178289       7.22597601  F       0.00000000       0.00000000       0.00000000
O        6.35447286      11.24178275       4.71193793  F       0.00000000       0.00000000       0.00000000
O        7.94305908      10.05602318       9.52801393  T       0.00000000       0.00000000       0.00000000
O        7.94309115       9.26262662       6.08591614  F       0.00000000       0.00000000       0.00000000
O        6.36060577       7.76929308      10.37205978  T       0.00000000       0.00000000       0.00000000
O        4.76682220       3.63189105       9.53778734  T       0.00000000       0.00000000       0.00000000
O        7.94381712      12.52492032       8.92326090  T       0.00000000       0.00000000       0.00000000
O        3.17723643       4.81790689       4.71193793  F       0.00000000       0.00000000       0.00000000
O        6.35447286       1.60596896       3.96703054  F       0.00000000       0.00000000       0.00000000
O        7.94309701       0.37317906       6.08592278  F       0.00000000       0.00000000       0.00000000
O        7.94309108       6.05142216       2.73351527  F       0.00000000       0.00000000       0.00000000
O        7.94532114       6.90929960      12.82686641  T       0.00000000       0.00000000       0.00000000
O        6.34139158       8.30188548       7.94321148  T       0.00000000       0.00000000       0.00000000
O        7.94547316       9.34378056      12.43481380  T       0.00000000       0.00000000       0.00000000
Pd       4.76586017      11.24177762       5.96678586  F       0.00000000       0.00000000       0.00000000
Pd       4.77463137      11.31713419      12.43315435  T       0.00000000       0.00000000       0.00000000
Pd       3.17987145       8.16303033      12.42439164  T       0.00000000       0.00000000       0.00000000
Pd       1.58311588      11.31689077      12.43418788  T       0.00000000       0.00000000       0.00000000
Pd       3.17725104       8.02984249       5.93124939  F       0.00000000       0.00000000       0.00000000
Pd       9.53167951       8.02984246       5.93125040  F       0.00000000       0.00000000       0.00000000
Pd       7.94309108       1.60596896       2.73351527  F       0.00000000       0.00000000       0.00000000
Pd       6.35447286       4.81790689       2.73351527  F       0.00000000       0.00000000       0.00000000
Pd       1.58862042      11.24178075       5.96678264  F       0.00000000       0.00000000       0.00000000
Pd       9.51813791       8.10831344      12.34080531  T       0.00000000       0.00000000       0.00000000
Pd       6.35109716       1.67566372      12.38458267  T       0.00000000       0.00000000       0.00000000
Pd       6.35446907       1.60596427       5.93125186  F       0.00000000       0.00000000       0.00000000
Pd       0.00000000      11.24178275       2.73351527  F       0.00000000       0.00000000       0.00000000
Pd       1.58861822       8.02984482       2.73351527  F       0.00000000       0.00000000       0.00000000
Pd       7.94342060       1.66052242       9.17447952  T       0.00000000       0.00000000       0.00000000
Pd       6.35573003       4.86718467       9.23763756  T       0.00000000       0.00000000       0.00000000
Pd       3.17723643      11.24178275       2.73351527  F       0.00000000       0.00000000       0.00000000
Pd       4.76585465       8.02984482       2.73351527  F       0.00000000       0.00000000       0.00000000
Pd       9.53519741       1.67555345      12.38590633  T       0.00000000       0.00000000       0.00000000
Pd       4.75579332       8.07027748       9.17819072  T       0.00000000       0.00000000       0.00000000
Pd       1.59910130       8.07111384       9.17825770  T       0.00000000       0.00000000       0.00000000
Pd       7.94307467       4.81790887       5.96677722  F       0.00000000       0.00000000       0.00000000
Pd       9.52839782      11.30117059       9.23241154  T       0.00000000       0.00000000       0.00000000
Pd       9.53131554       4.86758690       9.23756859  T       0.00000000       0.00000000       0.00000000
Pd       7.94468381       4.91424096      12.46685558  T       0.00000000       0.00000000       0.00000000
Pd       4.76585465       1.60596896       2.73351527  F       0.00000000       0.00000000       0.00000000
Pd       4.76951070       4.91341900      12.45327519  T       0.00000000       0.00000000       0.00000000
Pd       7.94307042      11.24177723       5.96677003  F       0.00000000       0.00000000       0.00000000
Pd       6.35446228       8.02984189       5.93125037  F       0.00000000       0.00000000       0.00000000
Pd       6.35447286      11.24178275       2.73351527  F       0.00000000       0.00000000       0.00000000
Pd       7.94309108       8.02984482       2.73351527  F       0.00000000       0.00000000       0.00000000
Pd       3.17733522       1.67376798      12.38656983  T       0.00000000       0.00000000       0.00000000
Pd       1.58902865       1.65902595       9.17518118  T       0.00000000       0.00000000       0.00000000
Pd       3.17715066      11.30302509       9.22922440  T       0.00000000       0.00000000       0.00000000
Pd       7.94290844       8.07609100       9.15098675  T       0.00000000       0.00000000       0.00000000
Pd       6.35899975      11.30149121       9.23163800  T       0.00000000       0.00000000       0.00000000
Pd       1.58861839       4.81790857       5.96677563  F       0.00000000       0.00000000       0.00000000
Pd       4.76586828       4.81790686       5.96677661  F       0.00000000       0.00000000       0.00000000
Pd       3.17749124       4.86449456       9.23513539  T       0.00000000       0.00000000       0.00000000
Pd       4.76611218       1.65893624       9.17439465  T       0.00000000       0.00000000       0.00000000
Pd       7.94405166      11.34057151      12.44129768  T       0.00000000       0.00000000       0.00000000
Pd       6.37367647       8.10811953      12.33986221  T       0.00000000       0.00000000       0.00000000
Pd       3.17725665       1.60596829       5.93125128  F       0.00000000       0.00000000       0.00000000
Pd       0.00000000       4.81790689       2.73351527  F       0.00000000       0.00000000       0.00000000
Pd       9.53168164       1.60596920       5.93125239  F       0.00000000       0.00000000       0.00000000
Pd       3.17723643       4.81790689       2.73351527  F       0.00000000       0.00000000       0.00000000
Pd       1.58819610       4.91505738      12.45332322  T       0.00000000       0.00000000       0.00000000
Pd       1.58861822       1.60596896       2.73351527  F       0.00000000       0.00000000       0.00000000
C        3.17740488       8.60059999      14.30414035  T       0.00000000       0.00000000       0.00000000
O        3.17155680       8.60897429      15.44862821  T       0.00000000       0.00000000       0.00000000
