146
Lattice="9.531709292017604 0.0 0.0 0.0 12.847751714415933 0.0 0.0 0.0 32.10284432209217" Properties=species:S:1:pos:R:3:move_mask:L:1:momenta:R:3 adsorbate_info="_JSON {\"site\": {\"coordinates\": [4.765843583852289, 6.820872039076103, 12.655505070898483], \"connectivity\": 1, \"topology\": [65], \"n_vector\": [-0.0006071814620649034, 0.2556842636614604, 0.9667601505267833], \"h_vector\": [1.0, 0.0, 0.0], \"site_formula\": {\"O\": 1}}, \"smiles\": \"Cl[C]=O\", \"mdf\": 2.10361826866063, \"adsorbate_formula\": \"CO\"}" mace_E=-756.5259441430527 converged=T n_steps=88 d_min=2.807460896614244 site_type=unknown dE_rel_meV=0 original_idx=61 rank=124 E_MACE=-753.4451925462575 pbc="T T T"
O        3.17728184       4.67841017      11.29545425  T       0.00000000       0.00000000       0.00000000
O        1.59344854       0.33405570      12.55198989  T       0.00000000       0.00000000       0.00000000
O        1.60305611       2.78739651      12.77488149  T       0.00000000       0.00000000       0.00000000
O        9.52858832       4.85753398      13.67420770  T       0.00000000       0.00000000       0.00000000
O       -0.03948398       4.45661138      11.17763843  T       0.00000000       0.00000000       0.00000000
O        1.58861822      10.00826748       2.73351527  F       0.00000000       0.00000000       0.00000000
O        1.58861822      12.47529802       2.73351527  F       0.00000000       0.00000000       0.00000000
O        4.76584344       2.83874884       6.08591509  F       0.00000000       0.00000000       0.00000000
O        0.00000000       8.02984482       1.50000000  F       0.00000000       0.00000000       0.00000000
O        1.58861107       6.79705424       6.08592811  F       0.00000000       0.00000000       0.00000000
O        9.53404289       1.35572608       7.95052711  T       0.00000000       0.00000000       0.00000000
O        1.58861150       9.26263623       6.08591827  F       0.00000000       0.00000000       0.00000000
O        4.76583598       0.37317881       6.08593111  F       0.00000000       0.00000000       0.00000000
O        6.35281786      10.95059377      11.21657877  T       0.00000000       0.00000000       0.00000000
O        3.17723028       4.81790423       7.22598268  F       0.00000000       0.00000000       0.00000000
O        6.35447286       1.60596896       1.50000000  F       0.00000000       0.00000000       0.00000000
O        7.94309377       2.83875127       6.08591528  F       0.00000000       0.00000000       0.00000000
O        6.35447101       4.81790868       7.22598243  F       0.00000000       0.00000000       0.00000000
O        6.35447286       4.81790689       4.71193793  F       0.00000000       0.00000000       0.00000000
O        7.94382509       3.57349837       8.90625053  T       0.00000000       0.00000000       0.00000000
O        7.94328827       6.03639778       9.52463044  T       0.00000000       0.00000000       0.00000000
O        0.00000338      11.24178289       7.22597220  F       0.00000000       0.00000000       0.00000000
O        1.58344534       6.04176309       9.54924902  T       0.00000000       0.00000000       0.00000000
O        1.59481384       3.57821168       8.94454098  T       0.00000000       0.00000000       0.00000000
O        0.00000000       4.81790689       4.71193793  F       0.00000000       0.00000000       0.00000000
O        1.59048558      12.46381305       9.53682146  T       0.00000000       0.00000000       0.00000000
O        0.00177102       8.27602353      10.41900163  T       0.00000000       0.00000000       0.00000000
O        0.00179590      10.95150848      11.21689916  T       0.00000000       0.00000000       0.00000000
O        4.76585465       6.05142216       2.73351527  F       0.00000000       0.00000000       0.00000000
O        9.53148772       7.79037531       7.95458626  T       0.00000000       0.00000000       0.00000000
O        3.17723643       1.60596896       3.96703054  F       0.00000000       0.00000000       0.00000000
O        9.53354982      11.30398968      13.69203183  T       0.00000000       0.00000000       0.00000000
O        1.59091104       9.20444022      12.79287584  T       0.00000000       0.00000000       0.00000000
O        4.76585465       3.58439162       2.73351527  F       0.00000000       0.00000000       0.00000000
O        1.60454116       6.75454834      12.61605924  T       0.00000000       0.00000000       0.00000000
O        3.17723643       1.60596896       1.50000000  F       0.00000000       0.00000000       0.00000000
O        0.00000000       8.02984482       3.96703054  F       0.00000000       0.00000000       0.00000000
O        1.58755054      10.00114850       8.93626820  T       0.00000000       0.00000000       0.00000000
O        0.00000000      11.24178275       4.71193793  F       0.00000000       0.00000000       0.00000000
O        1.58861822       3.58439162       2.73351527  F       0.00000000       0.00000000       0.00000000
O        1.58861822       6.05142216       2.73351527  F       0.00000000       0.00000000       0.00000000
O        0.00000000       1.60596896       3.96703054  F       0.00000000       0.00000000       0.00000000
O        0.00000000       1.60596896       1.50000000  F       0.00000000       0.00000000       0.00000000
O        1.58861510       0.37317604       6.08592568  F       0.00000000       0.00000000       0.00000000
O        1.58861475       2.83876150       6.08591621  F       0.00000000       0.00000000       0.00000000
O        0.00000677       4.81790638       7.22598148  F       0.00000000       0.00000000       0.00000000
O        6.35596952       1.83925423      10.40614716  T       0.00000000       0.00000000       0.00000000
O        6.35194945       1.35584619       7.95018345  T       0.00000000       0.00000000       0.00000000
O       -0.00173349       1.83836462      10.40577555  T       0.00000000       0.00000000       0.00000000
O        7.94250776       2.76399141      12.78156300  T       0.00000000       0.00000000       0.00000000
O        4.76061630       0.33423023      12.55326624  T       0.00000000       0.00000000       0.00000000
O        4.75082058       2.78751847      12.77380429  T       0.00000000       0.00000000       0.00000000
O        3.18490991       4.99647388      15.30823984  T       0.00000000       0.00000000       0.00000000
O        6.35252160      11.30445339      13.69133984  T       0.00000000       0.00000000       0.00000000
O        4.76585465      10.00826748       2.73351527  F       0.00000000       0.00000000       0.00000000
O        4.76585465      12.47529802       2.73351527  F       0.00000000       0.00000000       0.00000000
O        3.17723643       8.02984482       3.96703054  F       0.00000000       0.00000000       0.00000000
O        3.17723643       8.02984482       1.50000000  F       0.00000000       0.00000000       0.00000000
O        4.76583213       9.26262741       6.08592309  F       0.00000000       0.00000000       0.00000000
O        3.17722243      11.24178386       7.22601453  F       0.00000000       0.00000000       0.00000000
O        3.17723643      11.24178275       4.71193793  F       0.00000000       0.00000000       0.00000000
O        4.76643213      10.00145621       8.93680375  T       0.00000000       0.00000000       0.00000000
O        4.76372906      12.46412495       9.53692828  T       0.00000000       0.00000000       0.00000000
O        3.17686603       8.27077009      10.41011314  T       0.00000000       0.00000000       0.00000000
O        3.17750002       7.78317269       7.95245641  T       0.00000000       0.00000000       0.00000000
O        4.75074605       6.75478698      12.61491482  T       0.00000000       0.00000000       0.00000000
O        4.76556413       9.20442374      12.79139449  T       0.00000000       0.00000000       0.00000000
O        3.17742077      11.30428259      13.69866587  T       0.00000000       0.00000000       0.00000000
O        3.17731022      10.94995631      11.21650039  T       0.00000000       0.00000000       0.00000000
O        7.94309108       3.58439162       2.73351527  F       0.00000000       0.00000000       0.00000000
O        7.94368507       0.33775693      12.55745689  T       0.00000000       0.00000000       0.00000000
O        3.17711077       1.36200422       7.95095693  T       0.00000000       0.00000000       0.00000000
O        3.17727624       1.88651849      10.40711726  T       0.00000000       0.00000000       0.00000000
O        4.76583238       6.79706024       6.08593407  F       0.00000000       0.00000000       0.00000000
O        6.35737818       4.85792188      13.67253560  T       0.00000000       0.00000000       0.00000000
O        4.77192474       6.04185962       9.54841192  T       0.00000000       0.00000000       0.00000000
O        6.39371310       4.45613910      11.17612237  T       0.00000000       0.00000000       0.00000000
O        7.94309108      10.00826748       2.73351527  F       0.00000000       0.00000000       0.00000000
O        7.94309108      12.47529802       2.73351527  F       0.00000000       0.00000000       0.00000000
O        6.35447286       8.02984482       3.96703054  F       0.00000000       0.00000000       0.00000000
O        6.35447286       8.02984482       1.50000000  F       0.00000000       0.00000000       0.00000000
O        7.94309077       6.79706319       6.08592610  F       0.00000000       0.00000000       0.00000000
O        6.35446208      11.24178289       7.22597601  F       0.00000000       0.00000000       0.00000000
O        6.35447286      11.24178275       4.71193793  F       0.00000000       0.00000000       0.00000000
O        7.94263090      10.00114102       8.93710257  T       0.00000000       0.00000000       0.00000000
O        7.94309115       9.26262662       6.08591614  F       0.00000000       0.00000000       0.00000000
O        6.35342120       8.27627870      10.41860780  T       0.00000000       0.00000000       0.00000000
O        4.76020903       3.57815587       8.94473279  T       0.00000000       0.00000000       0.00000000
O        7.94226072      12.46009511       9.53849088  T       0.00000000       0.00000000       0.00000000
O        3.17723643       4.81790689       4.71193793  F       0.00000000       0.00000000       0.00000000
O        6.35447286       1.60596896       3.96703054  F       0.00000000       0.00000000       0.00000000
O        7.94309701       0.37317906       6.08592278  F       0.00000000       0.00000000       0.00000000
O        7.94309108       6.05142216       2.73351527  F       0.00000000       0.00000000       0.00000000
O        7.94332519       6.75833218      12.54336290  T       0.00000000       0.00000000       0.00000000
O        6.35448809       7.79028850       7.95468797  T       0.00000000       0.00000000       0.00000000
O        7.94361906       9.19853275      12.78496124  T       0.00000000       0.00000000       0.00000000
Pd       4.76586017      11.24177762       5.96678586  F       0.00000000       0.00000000       0.00000000
Pd       4.76493069      11.18622458      12.46539682  T       0.00000000       0.00000000       0.00000000
Pd       3.17743720       8.00747121      12.39801422  T       0.00000000       0.00000000       0.00000000
Pd       1.58952958      11.18584230      12.46588439  T       0.00000000       0.00000000       0.00000000
Pd       3.17725104       8.02984249       5.93124939  F       0.00000000       0.00000000       0.00000000
Pd       9.53167951       8.02984246       5.93125040  F       0.00000000       0.00000000       0.00000000
Pd       7.94309108       1.60596896       2.73351527  F       0.00000000       0.00000000       0.00000000
Pd       6.35447286       4.81790689       2.73351527  F       0.00000000       0.00000000       0.00000000
Pd       1.58862042      11.24178075       5.96678264  F       0.00000000       0.00000000       0.00000000
Pd       9.53781940       7.99842637      12.40616921  T       0.00000000       0.00000000       0.00000000
Pd       6.34984314       1.56450918      12.38701708  T       0.00000000       0.00000000       0.00000000
Pd       6.35446907       1.60596427       5.93125186  F       0.00000000       0.00000000       0.00000000
Pd       0.00000000      11.24178275       2.73351527  F       0.00000000       0.00000000       0.00000000
Pd       1.58861822       8.02984482       2.73351527  F       0.00000000       0.00000000       0.00000000
Pd       7.94290877       1.58591997       9.17218692  T       0.00000000       0.00000000       0.00000000
Pd       6.35806835       4.80121096       9.22517413  T       0.00000000       0.00000000       0.00000000
Pd       3.17723643      11.24178275       2.73351527  F       0.00000000       0.00000000       0.00000000
Pd       4.76585465       8.02984482       2.73351527  F       0.00000000       0.00000000       0.00000000
Pd       9.53637496       1.56507691      12.38657905  T       0.00000000       0.00000000       0.00000000
Pd       4.76696286       8.01662419       9.18063373  T       0.00000000       0.00000000       0.00000000
Pd       1.58761590       8.01634420       9.18049706  T       0.00000000       0.00000000       0.00000000
Pd       7.94307467       4.81790887       5.96677722  F       0.00000000       0.00000000       0.00000000
Pd       9.53204785      11.22580091       9.24215948  T       0.00000000       0.00000000       0.00000000
Pd       9.52848124       4.80127043       9.22563422  T       0.00000000       0.00000000       0.00000000
Pd       7.94376581       4.75248567      12.45246874  T       0.00000000       0.00000000       0.00000000
Pd       4.76585465       1.60596896       2.73351527  F       0.00000000       0.00000000       0.00000000
Pd       4.81539558       4.76978074      12.44117434  T       0.00000000       0.00000000       0.00000000
Pd       7.94307042      11.24177723       5.96677003  F       0.00000000       0.00000000       0.00000000
Pd       6.35446228       8.02984189       5.93125037  F       0.00000000       0.00000000       0.00000000
Pd       6.35447286      11.24178275       2.73351527  F       0.00000000       0.00000000       0.00000000
Pd       7.94309108       8.02984482       2.73351527  F       0.00000000       0.00000000       0.00000000
Pd       3.17680986       1.55637871      12.37883238  T       0.00000000       0.00000000       0.00000000
Pd       1.59130145       1.59063209       9.17626088  T       0.00000000       0.00000000       0.00000000
Pd       3.17707260      11.22510340       9.24087600  T       0.00000000       0.00000000       0.00000000
Pd       7.94318146       8.01733063       9.18343481  T       0.00000000       0.00000000       0.00000000
Pd       6.35344972      11.22587320       9.24201685  T       0.00000000       0.00000000       0.00000000
Pd       1.58861839       4.81790857       5.96677563  F       0.00000000       0.00000000       0.00000000
Pd       4.76586828       4.81790686       5.96677661  F       0.00000000       0.00000000       0.00000000
Pd       3.17759041       4.80625429       9.25794457  T       0.00000000       0.00000000       0.00000000
Pd       4.76327213       1.59071892       9.17589285  T       0.00000000       0.00000000       0.00000000
Pd       7.94311490      11.18718071      12.46361239  T       0.00000000       0.00000000       0.00000000
Pd       6.35009451       7.99792251      12.40525838  T       0.00000000       0.00000000       0.00000000
Pd       3.17725665       1.60596829       5.93125128  F       0.00000000       0.00000000       0.00000000
Pd       0.00000000       4.81790689       2.73351527  F       0.00000000       0.00000000       0.00000000
Pd       9.53168164       1.60596920       5.93125239  F       0.00000000       0.00000000       0.00000000
Pd       3.17723643       4.81790689       2.73351527  F       0.00000000       0.00000000       0.00000000
Pd       1.53892445       4.76961419      12.44222640  T       0.00000000       0.00000000       0.00000000
Pd       1.58861822       1.60596896       2.73351527  F       0.00000000       0.00000000       0.00000000
C        3.16730557       5.59759730      16.32064660  T       0.00000000       0.00000000       0.00000000
O        3.14788846       6.19585015      17.33671859  T       0.00000000       0.00000000       0.00000000
