146
Lattice="9.531709292017604 0.0 0.0 0.0 12.847751714415933 0.0 0.0 0.0 32.10284432209217" Properties=species:S:1:pos:R:3:move_mask:L:1:momenta:R:3 adsorbate_info="_JSON {\"site\": {\"coordinates\": [3.177249083871872, 11.241782031480728, 13.65421137221409], \"connectivity\": 1, \"topology\": [67], \"n_vector\": [0.023059886637095076, 0.004298032191646081, 0.9997248464190354], \"h_vector\": [1.0, 0.0, 0.0], \"site_formula\": {\"O\": 1}}, \"smiles\": \"Cl[C]=O\", \"mdf\": 2.6650253029873157, \"adsorbate_formula\": \"CO\"}" mace_E=-753.4694485352911 converged=F n_steps=27 d_min=1.1783437291697718 site_type=atop dE_rel_meV=0 original_idx=41 rank=6 E_MACE=-756.5738543829204 pbc="T T T"
O        3.17627592       4.81732728      11.21233478  T       0.00000000       0.00000000       0.00000000
O        1.58688881       0.38312870      12.68217408  T       0.00000000       0.00000000       0.00000000
O        1.58720358       2.82569996      12.68503760  T       0.00000000       0.00000000       0.00000000
O        9.53031091       4.81642233      13.69430992  T       0.00000000       0.00000000       0.00000000
O       -0.00091007       4.81677101      11.21231399  T       0.00000000       0.00000000       0.00000000
O        1.58861822      10.00826748       2.73351527  F       0.00000000       0.00000000       0.00000000
O        1.58861822      12.47529802       2.73351527  F       0.00000000       0.00000000       0.00000000
O        4.76584344       2.83874884       6.08591509  F       0.00000000       0.00000000       0.00000000
O        0.00000000       8.02984482       1.50000000  F       0.00000000       0.00000000       0.00000000
O        1.58861107       6.79705424       6.08592811  F       0.00000000       0.00000000       0.00000000
O        9.53116263       1.60540128       7.94629387  T       0.00000000       0.00000000       0.00000000
O        1.58861150       9.26263623       6.08591827  F       0.00000000       0.00000000       0.00000000
O        4.76583598       0.37317881       6.08593111  F       0.00000000       0.00000000       0.00000000
O        6.35220566      11.24587603      11.21115853  T       0.00000000       0.00000000       0.00000000
O        3.17723028       4.81790423       7.22598268  F       0.00000000       0.00000000       0.00000000
O        6.35447286       1.60596896       1.50000000  F       0.00000000       0.00000000       0.00000000
O        7.94309377       2.83875127       6.08591528  F       0.00000000       0.00000000       0.00000000
O        6.35447101       4.81790868       7.22598243  F       0.00000000       0.00000000       0.00000000
O        6.35447286       4.81790689       4.71193793  F       0.00000000       0.00000000       0.00000000
O        7.94276760       3.58405691       9.25743218  T       0.00000000       0.00000000       0.00000000
O        7.94274493       6.05146312       9.25841036  T       0.00000000       0.00000000       0.00000000
O        0.00000338      11.24178289       7.22597220  F       0.00000000       0.00000000       0.00000000
O        1.58830629       6.05157466       9.25913934  T       0.00000000       0.00000000       0.00000000
O        1.58827621       3.58391592       9.25789244  T       0.00000000       0.00000000       0.00000000
O        0.00000000       4.81790689       4.71193793  F       0.00000000       0.00000000       0.00000000
O        1.58776590      12.47514289       9.25862901  T       0.00000000       0.00000000       0.00000000
O       -0.00073072       8.03222873      10.41915863  T       0.00000000       0.00000000       0.00000000
O       -0.00321517      11.23988705      11.20872329  T       0.00000000       0.00000000       0.00000000
O        4.76585465       6.05142216       2.73351527  F       0.00000000       0.00000000       0.00000000
O        9.53116090       8.03195358       7.94670068  T       0.00000000       0.00000000       0.00000000
O        3.17723643       1.60596896       3.96703054  F       0.00000000       0.00000000       0.00000000
O        9.53095420      11.23986727      13.69105122  T       0.00000000       0.00000000       0.00000000
O        1.58700701       9.24984564      12.68385008  T       0.00000000       0.00000000       0.00000000
O        4.76585465       3.58439162       2.73351527  F       0.00000000       0.00000000       0.00000000
O        1.58702251       6.80653331      12.68687599  T       0.00000000       0.00000000       0.00000000
O        3.17723643       1.60596896       1.50000000  F       0.00000000       0.00000000       0.00000000
O        0.00000000       8.02984482       3.96703054  F       0.00000000       0.00000000       0.00000000
O        1.58775445      10.00815009       9.26021544  T       0.00000000       0.00000000       0.00000000
O        0.00000000      11.24178275       4.71193793  F       0.00000000       0.00000000       0.00000000
O        1.58861822       3.58439162       2.73351527  F       0.00000000       0.00000000       0.00000000
O        1.58861822       6.05142216       2.73351527  F       0.00000000       0.00000000       0.00000000
O        0.00000000       1.60596896       3.96703054  F       0.00000000       0.00000000       0.00000000
O        0.00000000       1.60596896       1.50000000  F       0.00000000       0.00000000       0.00000000
O        1.58861510       0.37317604       6.08592568  F       0.00000000       0.00000000       0.00000000
O        1.58861475       2.83876150       6.08591621  F       0.00000000       0.00000000       0.00000000
O        0.00000677       4.81790638       7.22598148  F       0.00000000       0.00000000       0.00000000
O        6.35369329       1.60606139      10.41803204  T       0.00000000       0.00000000       0.00000000
O        6.35389370       1.60829741       7.94647738  T       0.00000000       0.00000000       0.00000000
O       -0.00070707       1.60501607      10.41790584  T       0.00000000       0.00000000       0.00000000
O        7.94145651       2.82565199      12.68465207  T       0.00000000       0.00000000       0.00000000
O        4.76434965       0.38344642      12.68031005  T       0.00000000       0.00000000       0.00000000
O        4.76442563       2.82565312      12.68491733  T       0.00000000       0.00000000       0.00000000
O        3.17634502       4.81644413      13.69443421  T       0.00000000       0.00000000       0.00000000
O        6.35245490      11.24099651      13.69412316  T       0.00000000       0.00000000       0.00000000
O        4.76585465      10.00826748       2.73351527  F       0.00000000       0.00000000       0.00000000
O        4.76585465      12.47529802       2.73351527  F       0.00000000       0.00000000       0.00000000
O        3.17723643       8.02984482       3.96703054  F       0.00000000       0.00000000       0.00000000
O        3.17723643       8.02984482       1.50000000  F       0.00000000       0.00000000       0.00000000
O        4.76583213       9.26262741       6.08592309  F       0.00000000       0.00000000       0.00000000
O        3.17722243      11.24178386       7.22601453  F       0.00000000       0.00000000       0.00000000
O        3.17723643      11.24178275       4.71193793  F       0.00000000       0.00000000       0.00000000
O        4.76554416      10.00802226       9.25352562  T       0.00000000       0.00000000       0.00000000
O        4.76536232      12.47538157       9.25018092  T       0.00000000       0.00000000       0.00000000
O        3.17603859       8.03560217      10.41902990  T       0.00000000       0.00000000       0.00000000
O        3.17665850       8.03041350       7.94677048  T       0.00000000       0.00000000       0.00000000
O        4.76433905       6.80656349      12.68447360  T       0.00000000       0.00000000       0.00000000
O        4.76384382       9.24913334      12.68296365  T       0.00000000       0.00000000       0.00000000
O        3.17402599      11.24071064      13.69162616  T       0.00000000       0.00000000       0.00000000
O        3.17759758      11.24272141      11.20865126  T       0.00000000       0.00000000       0.00000000
O        7.94309108       3.58439162       2.73351527  F       0.00000000       0.00000000       0.00000000
O        7.94130678       0.38326979      12.68125679  T       0.00000000       0.00000000       0.00000000
O        3.17678106       1.60691449       7.94642089  T       0.00000000       0.00000000       0.00000000
O        3.17617746       1.60366811      10.41812183  T       0.00000000       0.00000000       0.00000000
O        4.76583238       6.79706024       6.08593407  F       0.00000000       0.00000000       0.00000000
O        6.35327113       4.81644395      13.69412745  T       0.00000000       0.00000000       0.00000000
O        4.76521118       6.05161815       9.25915919  T       0.00000000       0.00000000       0.00000000
O        6.35340902       4.81625316      11.21204039  T       0.00000000       0.00000000       0.00000000
O        7.94309108      10.00826748       2.73351527  F       0.00000000       0.00000000       0.00000000
O        7.94309108      12.47529802       2.73351527  F       0.00000000       0.00000000       0.00000000
O        6.35447286       8.02984482       3.96703054  F       0.00000000       0.00000000       0.00000000
O        6.35447286       8.02984482       1.50000000  F       0.00000000       0.00000000       0.00000000
O        7.94309077       6.79706319       6.08592610  F       0.00000000       0.00000000       0.00000000
O        6.35446208      11.24178289       7.22597601  F       0.00000000       0.00000000       0.00000000
O        6.35447286      11.24178275       4.71193793  F       0.00000000       0.00000000       0.00000000
O        7.94161050      10.00788361       9.25694237  T       0.00000000       0.00000000       0.00000000
O        7.94309115       9.26262662       6.08591614  F       0.00000000       0.00000000       0.00000000
O        6.35362769       8.03244797      10.41846676  T       0.00000000       0.00000000       0.00000000
O        4.76526201       3.58393804       9.25801095  T       0.00000000       0.00000000       0.00000000
O        7.94183299      12.47550753       9.25426188  T       0.00000000       0.00000000       0.00000000
O        3.17723643       4.81790689       4.71193793  F       0.00000000       0.00000000       0.00000000
O        6.35447286       1.60596896       3.96703054  F       0.00000000       0.00000000       0.00000000
O        7.94309701       0.37317906       6.08592278  F       0.00000000       0.00000000       0.00000000
O        7.94309108       6.05142216       2.73351527  F       0.00000000       0.00000000       0.00000000
O        7.94140397       6.80662139      12.68445448  T       0.00000000       0.00000000       0.00000000
O        6.35387481       8.02862145       7.94663636  T       0.00000000       0.00000000       0.00000000
O        7.94141532       9.24941221      12.68424729  T       0.00000000       0.00000000       0.00000000
Pd       4.76586017      11.24177762       5.96678586  F       0.00000000       0.00000000       0.00000000
Pd       4.76404503      11.24064888      12.46212335  T       0.00000000       0.00000000       0.00000000
Pd       3.17477724       8.02699604      12.39992858  T       0.00000000       0.00000000       0.00000000
Pd       1.58743334      11.24104958      12.45814936  T       0.00000000       0.00000000       0.00000000
Pd       3.17725104       8.02984249       5.93124939  F       0.00000000       0.00000000       0.00000000
Pd       9.53167951       8.02984246       5.93125040  F       0.00000000       0.00000000       0.00000000
Pd       7.94309108       1.60596896       2.73351527  F       0.00000000       0.00000000       0.00000000
Pd       6.35447286       4.81790689       2.73351527  F       0.00000000       0.00000000       0.00000000
Pd       1.58862042      11.24178075       5.96678264  F       0.00000000       0.00000000       0.00000000
Pd       9.53043825       8.02760088      12.40006073  T       0.00000000       0.00000000       0.00000000
Pd       6.35288346       1.60478830      12.39866168  T       0.00000000       0.00000000       0.00000000
Pd       6.35446907       1.60596427       5.93125186  F       0.00000000       0.00000000       0.00000000
Pd       0.00000000      11.24178275       2.73351527  F       0.00000000       0.00000000       0.00000000
Pd       1.58861822       8.02984482       2.73351527  F       0.00000000       0.00000000       0.00000000
Pd       7.94241334       1.60599177       9.17045251  T       0.00000000       0.00000000       0.00000000
Pd       6.35401148       4.81768403       9.21850273  T       0.00000000       0.00000000       0.00000000
Pd       3.17723643      11.24178275       2.73351527  F       0.00000000       0.00000000       0.00000000
Pd       4.76585465       8.02984482       2.73351527  F       0.00000000       0.00000000       0.00000000
Pd       9.53045326       1.60429286      12.39887297  T       0.00000000       0.00000000       0.00000000
Pd       4.76510662       8.02926617       9.17106059  T       0.00000000       0.00000000       0.00000000
Pd       1.58784104       8.02931793       9.17068776  T       0.00000000       0.00000000       0.00000000
Pd       7.94307467       4.81790887       5.96677722  F       0.00000000       0.00000000       0.00000000
Pd       9.53055128      11.24152968       9.21608819  T       0.00000000       0.00000000       0.00000000
Pd       9.53141651       4.81766563       9.21872907  T       0.00000000       0.00000000       0.00000000
Pd       7.94183442       4.81631550      12.46210919  T       0.00000000       0.00000000       0.00000000
Pd       4.76585465       1.60596896       2.73351527  F       0.00000000       0.00000000       0.00000000
Pd       4.76474856       4.81627592      12.46224231  T       0.00000000       0.00000000       0.00000000
Pd       7.94307042      11.24177723       5.96677003  F       0.00000000       0.00000000       0.00000000
Pd       6.35446228       8.02984189       5.93125037  F       0.00000000       0.00000000       0.00000000
Pd       6.35447286      11.24178275       2.73351527  F       0.00000000       0.00000000       0.00000000
Pd       7.94309108       8.02984482       2.73351527  F       0.00000000       0.00000000       0.00000000
Pd       3.17511966       1.60442344      12.39903427  T       0.00000000       0.00000000       0.00000000
Pd       1.58793207       1.60571286       9.17021530  T       0.00000000       0.00000000       0.00000000
Pd       3.17659254      11.24146794       9.21625315  T       0.00000000       0.00000000       0.00000000
Pd       7.94236645       8.02919136       9.17084897  T       0.00000000       0.00000000       0.00000000
Pd       6.35361772      11.24159324       9.21741723  T       0.00000000       0.00000000       0.00000000
Pd       1.58861839       4.81790857       5.96677563  F       0.00000000       0.00000000       0.00000000
Pd       4.76586828       4.81790686       5.96677661  F       0.00000000       0.00000000       0.00000000
Pd       3.17684811       4.81761996       9.21860855  T       0.00000000       0.00000000       0.00000000
Pd       4.76514577       1.60590592       9.17076917  T       0.00000000       0.00000000       0.00000000
Pd       7.94057918      11.24090929      12.46167536  T       0.00000000       0.00000000       0.00000000
Pd       6.35285925       8.02773354      12.39948869  T       0.00000000       0.00000000       0.00000000
Pd       3.17725665       1.60596829       5.93125128  F       0.00000000       0.00000000       0.00000000
Pd       0.00000000       4.81790689       2.73351527  F       0.00000000       0.00000000       0.00000000
Pd       9.53168164       1.60596920       5.93125239  F       0.00000000       0.00000000       0.00000000
Pd       3.17723643       4.81790689       2.73351527  F       0.00000000       0.00000000       0.00000000
Pd       1.58748539       4.81640019      12.46257208  T       0.00000000       0.00000000       0.00000000
Pd       1.58861822       1.60596896       2.73351527  F       0.00000000       0.00000000       0.00000000
C        1.41697015      11.32700353      16.31264879  T       0.00000000       0.00000000       0.00000000
O        1.29212713      10.23840766      16.65507820  T       0.00000000       0.00000000       0.00000000
