146
Lattice="9.531709292017604 0.0 0.0 0.0 12.847751714415933 0.0 0.0 0.0 32.10284432209217" Properties=species:S:1:pos:R:3:move_mask:L:1:momenta:R:3 adsorbate_info="_JSON {\"site\": {\"coordinates\": [6.884009994145889, 0.13233432884604981, 12.885467066416277], \"connectivity\": 3, \"topology\": [53, 70, 106], \"n_vector\": [0.023185781460318463, 0.3000364625161246, 0.9536459199822985], \"h_vector\": [0.7864202097362779, -0.598485471762065, 0.15283453081057077], \"site_formula\": {\"O\": 2, \"Pd\": 1}}, \"smiles\": \"Cl[C]=O\", \"mdf\": 2.2895274147837203, \"adsorbate_formula\": \"CO\"}" mace_E=-754.0396718058748 converged=T n_steps=82 d_min=2.8396386376098794 site_type=bridge dE_rel_meV=0 original_idx=84 rank=125 E_MACE=-753.441897599446 pbc="T T T"
O        3.17951918       4.50163785      11.21555539  T       0.00000000       0.00000000       0.00000000
O        1.59010788       0.30877209      12.52537765  T       0.00000000       0.00000000       0.00000000
O        1.59118811       2.74471431      12.78281260  T       0.00000000       0.00000000       0.00000000
O        9.53379334       4.85935833      13.68629265  T       0.00000000       0.00000000       0.00000000
O        0.00200024       4.50704166      11.21336908  T       0.00000000       0.00000000       0.00000000
O        1.58861822      10.00826748       2.73351527  F       0.00000000       0.00000000       0.00000000
O        1.58861822      12.47529802       2.73351527  F       0.00000000       0.00000000       0.00000000
O        4.76584344       2.83874884       6.08591509  F       0.00000000       0.00000000       0.00000000
O        0.00000000       8.02984482       1.50000000  F       0.00000000       0.00000000       0.00000000
O        1.58861107       6.79705424       6.08592811  F       0.00000000       0.00000000       0.00000000
O        9.53219840       1.35740992       7.94953633  T       0.00000000       0.00000000       0.00000000
O        1.58861150       9.26263623       6.08591827  F       0.00000000       0.00000000       0.00000000
O        4.76583598       0.37317881       6.08593111  F       0.00000000       0.00000000       0.00000000
O        6.35674887      10.92669799      11.20683389  T       0.00000000       0.00000000       0.00000000
O        3.17723028       4.81790423       7.22598268  F       0.00000000       0.00000000       0.00000000
O        6.35447286       1.60596896       1.50000000  F       0.00000000       0.00000000       0.00000000
O        7.94309377       2.83875127       6.08591528  F       0.00000000       0.00000000       0.00000000
O        6.35447101       4.81790868       7.22598243  F       0.00000000       0.00000000       0.00000000
O        6.35447286       4.81790689       4.71193793  F       0.00000000       0.00000000       0.00000000
O        7.94438424       3.56880263       8.93581294  T       0.00000000       0.00000000       0.00000000
O        7.94266623       6.02869348       9.54103618  T       0.00000000       0.00000000       0.00000000
O        0.00000338      11.24178289       7.22597220  F       0.00000000       0.00000000       0.00000000
O        1.59147761       6.02896884       9.54043803  T       0.00000000       0.00000000       0.00000000
O        1.58947046       3.56890905       8.93525103  T       0.00000000       0.00000000       0.00000000
O        0.00000000       4.81790689       4.71193793  F       0.00000000       0.00000000       0.00000000
O        1.59039697      12.44974964       9.53280105  T       0.00000000       0.00000000       0.00000000
O        0.00196760       8.27261389      10.40559789  T       0.00000000       0.00000000       0.00000000
O        0.00051720      10.92996025      11.20935138  T       0.00000000       0.00000000       0.00000000
O        4.76585465       6.05142216       2.73351527  F       0.00000000       0.00000000       0.00000000
O        9.53252924       7.77692030       7.94932562  T       0.00000000       0.00000000       0.00000000
O        3.17723643       1.60596896       3.96703054  F       0.00000000       0.00000000       0.00000000
O        9.53436741      11.27492250      13.68424350  T       0.00000000       0.00000000       0.00000000
O        1.59297496       9.16695504      12.78147949  T       0.00000000       0.00000000       0.00000000
O        4.76585465       3.58439162       2.73351527  F       0.00000000       0.00000000       0.00000000
O        1.59028363       6.73373322      12.53344066  T       0.00000000       0.00000000       0.00000000
O        3.17723643       1.60596896       1.50000000  F       0.00000000       0.00000000       0.00000000
O        0.00000000       8.02984482       3.96703054  F       0.00000000       0.00000000       0.00000000
O        1.59118353       9.99062774       8.93088655  T       0.00000000       0.00000000       0.00000000
O        0.00000000      11.24178275       4.71193793  F       0.00000000       0.00000000       0.00000000
O        1.58861822       3.58439162       2.73351527  F       0.00000000       0.00000000       0.00000000
O        1.58861822       6.05142216       2.73351527  F       0.00000000       0.00000000       0.00000000
O        0.00000000       1.60596896       3.96703054  F       0.00000000       0.00000000       0.00000000
O        0.00000000       1.60596896       1.50000000  F       0.00000000       0.00000000       0.00000000
O        1.58861510       0.37317604       6.08592568  F       0.00000000       0.00000000       0.00000000
O        1.58861475       2.83876150       6.08591621  F       0.00000000       0.00000000       0.00000000
O        0.00000677       4.81790638       7.22598148  F       0.00000000       0.00000000       0.00000000
O        6.35489880       1.83961794      10.40473145  T       0.00000000       0.00000000       0.00000000
O        6.35558470       1.35796825       7.94888343  T       0.00000000       0.00000000       0.00000000
O        0.00086766       1.83408908      10.40452941  T       0.00000000       0.00000000       0.00000000
O        7.94729877       2.74494388      12.77690453  T       0.00000000       0.00000000       0.00000000
O        4.77053383       0.31278766      12.51704403  T       0.00000000       0.00000000       0.00000000
O        4.76908510       2.73906225      12.78170508  T       0.00000000       0.00000000       0.00000000
O        3.18005076       4.85394783      13.68859695  T       0.00000000       0.00000000       0.00000000
O        6.35346788      11.27948453      13.68059014  T       0.00000000       0.00000000       0.00000000
O        4.76585465      10.00826748       2.73351527  F       0.00000000       0.00000000       0.00000000
O        4.76585465      12.47529802       2.73351527  F       0.00000000       0.00000000       0.00000000
O        3.17723643       8.02984482       3.96703054  F       0.00000000       0.00000000       0.00000000
O        3.17723643       8.02984482       1.50000000  F       0.00000000       0.00000000       0.00000000
O        4.76583213       9.26262741       6.08592309  F       0.00000000       0.00000000       0.00000000
O        3.17722243      11.24178386       7.22601453  F       0.00000000       0.00000000       0.00000000
O        3.17723643      11.24178275       4.71193793  F       0.00000000       0.00000000       0.00000000
O        4.76781877       9.99064836       8.92940218  T       0.00000000       0.00000000       0.00000000
O        4.76722745      12.45167441       9.52926357  T       0.00000000       0.00000000       0.00000000
O        3.17890600       8.27583523      10.40629922  T       0.00000000       0.00000000       0.00000000
O        3.17932792       7.77800777       7.95056615  T       0.00000000       0.00000000       0.00000000
O        4.76814546       6.73175362      12.52833651  T       0.00000000       0.00000000       0.00000000
O        4.76858505       9.16889303      12.77744862  T       0.00000000       0.00000000       0.00000000
O        3.18259426      11.27581107      13.67918078  T       0.00000000       0.00000000       0.00000000
O        3.18027333      10.92383678      11.20611070  T       0.00000000       0.00000000       0.00000000
O        7.94309108       3.58439162       2.73351527  F       0.00000000       0.00000000       0.00000000
O        7.94743394       0.30917019      12.52196559  T       0.00000000       0.00000000       0.00000000
O        3.17733487       1.35842662       7.94881154  T       0.00000000       0.00000000       0.00000000
O        3.17907082       1.84099680      10.40529994  T       0.00000000       0.00000000       0.00000000
O        4.76583238       6.79706024       6.08593407  F       0.00000000       0.00000000       0.00000000
O        6.35747227       4.85495700      13.68945234  T       0.00000000       0.00000000       0.00000000
O        4.76799173       6.02641052       9.53677482  T       0.00000000       0.00000000       0.00000000
O        6.35754158       4.50129935      11.21700657  T       0.00000000       0.00000000       0.00000000
O        7.94309108      10.00826748       2.73351527  F       0.00000000       0.00000000       0.00000000
O        7.94309108      12.47529802       2.73351527  F       0.00000000       0.00000000       0.00000000
O        6.35447286       8.02984482       3.96703054  F       0.00000000       0.00000000       0.00000000
O        6.35447286       8.02984482       1.50000000  F       0.00000000       0.00000000       0.00000000
O        7.94309077       6.79706319       6.08592610  F       0.00000000       0.00000000       0.00000000
O        6.35446208      11.24178289       7.22597601  F       0.00000000       0.00000000       0.00000000
O        6.35447286      11.24178275       4.71193793  F       0.00000000       0.00000000       0.00000000
O        7.94237326       9.99074900       8.93205392  T       0.00000000       0.00000000       0.00000000
O        7.94309115       9.26262662       6.08591614  F       0.00000000       0.00000000       0.00000000
O        6.35569061       8.27572841      10.40569881  T       0.00000000       0.00000000       0.00000000
O        4.76772732       3.56659989       8.93783152  T       0.00000000       0.00000000       0.00000000
O        7.94353593      12.45071752       9.53213878  T       0.00000000       0.00000000       0.00000000
O        3.17723643       4.81790689       4.71193793  F       0.00000000       0.00000000       0.00000000
O        6.35447286       1.60596896       3.96703054  F       0.00000000       0.00000000       0.00000000
O        7.94309701       0.37317906       6.08592278  F       0.00000000       0.00000000       0.00000000
O        7.94309108       6.05142216       2.73351527  F       0.00000000       0.00000000       0.00000000
O        7.94513010       6.73392860      12.53469734  T       0.00000000       0.00000000       0.00000000
O        6.35492848       7.77781764       7.95103016  T       0.00000000       0.00000000       0.00000000
O        7.94412662       9.16835814      12.78258809  T       0.00000000       0.00000000       0.00000000
Pd       4.76586017      11.24177762       5.96678586  F       0.00000000       0.00000000       0.00000000
Pd       4.76899029      11.15814026      12.45131643  T       0.00000000       0.00000000       0.00000000
Pd       3.17958905       7.96332371      12.37435054  T       0.00000000       0.00000000       0.00000000
Pd       1.59115343      11.15631105      12.45502965  T       0.00000000       0.00000000       0.00000000
Pd       3.17725104       8.02984249       5.93124939  F       0.00000000       0.00000000       0.00000000
Pd       9.53167951       8.02984246       5.93125040  F       0.00000000       0.00000000       0.00000000
Pd       7.94309108       1.60596896       2.73351527  F       0.00000000       0.00000000       0.00000000
Pd       6.35447286       4.81790689       2.73351527  F       0.00000000       0.00000000       0.00000000
Pd       1.58862042      11.24178075       5.96678264  F       0.00000000       0.00000000       0.00000000
Pd       9.53386857       7.96459153      12.37562720  T       0.00000000       0.00000000       0.00000000
Pd       6.35978518       1.54117191      12.36837078  T       0.00000000       0.00000000       0.00000000
Pd       6.35446907       1.60596427       5.93125186  F       0.00000000       0.00000000       0.00000000
Pd       0.00000000      11.24178275       2.73351527  F       0.00000000       0.00000000       0.00000000
Pd       1.58861822       8.02984482       2.73351527  F       0.00000000       0.00000000       0.00000000
Pd       7.94402381       1.58003977       9.17356827  T       0.00000000       0.00000000       0.00000000
Pd       6.35571493       4.78986379       9.24275303  T       0.00000000       0.00000000       0.00000000
Pd       3.17723643      11.24178275       2.73351527  F       0.00000000       0.00000000       0.00000000
Pd       4.76585465       8.02984482       2.73351527  F       0.00000000       0.00000000       0.00000000
Pd       9.53430611       1.54033418      12.37381153  T       0.00000000       0.00000000       0.00000000
Pd       4.76731033       8.00288323       9.17702943  T       0.00000000       0.00000000       0.00000000
Pd       1.59058005       8.00333677       9.17508933  T       0.00000000       0.00000000       0.00000000
Pd       7.94307467       4.81790887       5.96677722  F       0.00000000       0.00000000       0.00000000
Pd       9.53262744      11.21238957       9.23814485  T       0.00000000       0.00000000       0.00000000
Pd       9.53272043       4.79383588       9.24175267  T       0.00000000       0.00000000       0.00000000
Pd       7.94576337       4.73405088      12.46142372  T       0.00000000       0.00000000       0.00000000
Pd       4.76585465       1.60596896       2.73351527  F       0.00000000       0.00000000       0.00000000
Pd       4.76883525       4.73159777      12.46282472  T       0.00000000       0.00000000       0.00000000
Pd       7.94307042      11.24177723       5.96677003  F       0.00000000       0.00000000       0.00000000
Pd       6.35446228       8.02984189       5.93125037  F       0.00000000       0.00000000       0.00000000
Pd       6.35447286      11.24178275       2.73351527  F       0.00000000       0.00000000       0.00000000
Pd       7.94309108       8.02984482       2.73351527  F       0.00000000       0.00000000       0.00000000
Pd       3.17923756       1.53954790      12.37609537  T       0.00000000       0.00000000       0.00000000
Pd       1.58977349       1.58065774       9.17353163  T       0.00000000       0.00000000       0.00000000
Pd       3.17916630      11.21456624       9.23665747  T       0.00000000       0.00000000       0.00000000
Pd       7.94401912       8.00320130       9.17556466  T       0.00000000       0.00000000       0.00000000
Pd       6.35516785      11.21487530       9.23743383  T       0.00000000       0.00000000       0.00000000
Pd       1.58861839       4.81790857       5.96677563  F       0.00000000       0.00000000       0.00000000
Pd       4.76586828       4.81790686       5.96677661  F       0.00000000       0.00000000       0.00000000
Pd       3.17928199       4.79026336       9.24237574  T       0.00000000       0.00000000       0.00000000
Pd       4.76627073       1.57957879       9.17454143  T       0.00000000       0.00000000       0.00000000
Pd       7.94529237      11.15749769      12.45667673  T       0.00000000       0.00000000       0.00000000
Pd       6.35702517       7.96425141      12.37390793  T       0.00000000       0.00000000       0.00000000
Pd       3.17725665       1.60596829       5.93125128  F       0.00000000       0.00000000       0.00000000
Pd       0.00000000       4.81790689       2.73351527  F       0.00000000       0.00000000       0.00000000
Pd       9.53168164       1.60596920       5.93125239  F       0.00000000       0.00000000       0.00000000
Pd       3.17723643       4.81790689       2.73351527  F       0.00000000       0.00000000       0.00000000
Pd       1.59101825       4.73404597      12.46065089  T       0.00000000       0.00000000       0.00000000
Pd       1.58861822       1.60596896       2.73351527  F       0.00000000       0.00000000       0.00000000
C        5.28220533       1.04539928      15.62161542  T       0.00000000       0.00000000       0.00000000
O        4.20733031       0.86197218      15.97738680  T       0.00000000       0.00000000       0.00000000
