146
Lattice="9.531709292017604 0.0 0.0 0.0 12.847751714415933 0.0 0.0 0.0 32.10284432209217" Properties=species:S:1:pos:R:3:move_mask:L:1:momenta:R:3 adsorbate_info="_JSON {\"site\": {\"coordinates\": [1.5886129959425461, 9.238821339713406, 12.655511193377073], \"connectivity\": 1, \"topology\": [32], \"n_vector\": [-0.026649969747206542, -0.25450170258717625, 0.9667050545500946], \"h_vector\": [1.0, 0.0, 0.0], \"site_formula\": {\"O\": 1}}, \"smiles\": \"Cl[C]=O\", \"mdf\": 2.1361244336165135, \"adsorbate_formula\": \"CO\"}" mace_E=-753.4852103427825 converged=T n_steps=40 d_min=2.7578599514718984 site_type=unknown dE_rel_meV=0 original_idx=21 rank=127 E_MACE=-753.4357852610498 pbc="T T T"
O        3.17986259       4.79766190      11.21509671  T       0.00000000       0.00000000       0.00000000
O        1.58831339       0.40713999      12.67982137  T       0.00000000       0.00000000       0.00000000
O        1.58985189       2.84692187      12.68765510  T       0.00000000       0.00000000       0.00000000
O        9.53476015       4.85148903      13.70264448  T       0.00000000       0.00000000       0.00000000
O        0.00099443       4.80606195      11.21701083  T       0.00000000       0.00000000       0.00000000
O        1.58861822      10.00826748       2.73351527  F       0.00000000       0.00000000       0.00000000
O        1.58861822      12.47529802       2.73351527  F       0.00000000       0.00000000       0.00000000
O        4.76584344       2.83874884       6.08591509  F       0.00000000       0.00000000       0.00000000
O        0.00000000       8.02984482       1.50000000  F       0.00000000       0.00000000       0.00000000
O        1.58861107       6.79705424       6.08592811  F       0.00000000       0.00000000       0.00000000
O        9.53188742       1.60368542       7.94440645  T       0.00000000       0.00000000       0.00000000
O        1.58861150       9.26263623       6.08591827  F       0.00000000       0.00000000       0.00000000
O        4.76583598       0.37317881       6.08593111  F       0.00000000       0.00000000       0.00000000
O        6.35513050      11.26890638      11.21623843  T       0.00000000       0.00000000       0.00000000
O        3.17723028       4.81790423       7.22598268  F       0.00000000       0.00000000       0.00000000
O        6.35447286       1.60596896       1.50000000  F       0.00000000       0.00000000       0.00000000
O        7.94309377       2.83875127       6.08591528  F       0.00000000       0.00000000       0.00000000
O        6.35447101       4.81790868       7.22598243  F       0.00000000       0.00000000       0.00000000
O        6.35447286       4.81790689       4.71193793  F       0.00000000       0.00000000       0.00000000
O        7.94272340       3.59513694       9.23746756  T       0.00000000       0.00000000       0.00000000
O        7.94425417       6.06227614       9.29465543  T       0.00000000       0.00000000       0.00000000
O        0.00000338      11.24178289       7.22597220  F       0.00000000       0.00000000       0.00000000
O        1.58849228       6.06117739       9.29174329  T       0.00000000       0.00000000       0.00000000
O        1.58992632       3.59500061       9.24090969  T       0.00000000       0.00000000       0.00000000
O        0.00000000       4.81790689       4.71193793  F       0.00000000       0.00000000       0.00000000
O        1.58877883      12.48588920       9.26042894  T       0.00000000       0.00000000       0.00000000
O       -0.00076012       8.06275935      10.40714490  T       0.00000000       0.00000000       0.00000000
O        0.00213850      11.27333340      11.21689794  T       0.00000000       0.00000000       0.00000000
O        4.76585465       6.05142216       2.73351527  F       0.00000000       0.00000000       0.00000000
O        9.53174424       8.01422232       7.94016946  T       0.00000000       0.00000000       0.00000000
O        3.17723643       1.60596896       3.96703054  F       0.00000000       0.00000000       0.00000000
O        9.53183956      11.26162805      13.70487271  T       0.00000000       0.00000000       0.00000000
O        1.59415948       9.27024496      12.66115087  T       0.00000000       0.00000000       0.00000000
O        4.76585465       3.58439162       2.73351527  F       0.00000000       0.00000000       0.00000000
O        1.59442630       6.82940772      12.65690518  T       0.00000000       0.00000000       0.00000000
O        3.17723643       1.60596896       1.50000000  F       0.00000000       0.00000000       0.00000000
O        0.00000000       8.02984482       3.96703054  F       0.00000000       0.00000000       0.00000000
O        1.58991111      10.01748282       9.26240853  T       0.00000000       0.00000000       0.00000000
O        0.00000000      11.24178275       4.71193793  F       0.00000000       0.00000000       0.00000000
O        1.58861822       3.58439162       2.73351527  F       0.00000000       0.00000000       0.00000000
O        1.58861822       6.05142216       2.73351527  F       0.00000000       0.00000000       0.00000000
O        0.00000000       1.60596896       3.96703054  F       0.00000000       0.00000000       0.00000000
O        0.00000000       1.60596896       1.50000000  F       0.00000000       0.00000000       0.00000000
O        1.58861510       0.37317604       6.08592568  F       0.00000000       0.00000000       0.00000000
O        1.58861475       2.83876150       6.08591621  F       0.00000000       0.00000000       0.00000000
O        0.00000677       4.81790638       7.22598148  F       0.00000000       0.00000000       0.00000000
O        6.35470654       1.62065227      10.41288943  T       0.00000000       0.00000000       0.00000000
O        6.35539071       1.60287351       7.94224884  T       0.00000000       0.00000000       0.00000000
O        0.00030196       1.63404645      10.41660526  T       0.00000000       0.00000000       0.00000000
O        7.94396725       2.84681649      12.68897957  T       0.00000000       0.00000000       0.00000000
O        4.76649810       0.40810356      12.68178087  T       0.00000000       0.00000000       0.00000000
O        4.76689811       2.84356846      12.68079245  T       0.00000000       0.00000000       0.00000000
O        3.18050111       4.84464464      13.69930934  T       0.00000000       0.00000000       0.00000000
O        6.35471974      11.26295907      13.70334797  T       0.00000000       0.00000000       0.00000000
O        4.76585465      10.00826748       2.73351527  F       0.00000000       0.00000000       0.00000000
O        4.76585465      12.47529802       2.73351527  F       0.00000000       0.00000000       0.00000000
O        3.17723643       8.02984482       3.96703054  F       0.00000000       0.00000000       0.00000000
O        3.17723643       8.02984482       1.50000000  F       0.00000000       0.00000000       0.00000000
O        4.76583213       9.26262741       6.08592309  F       0.00000000       0.00000000       0.00000000
O        3.17722243      11.24178386       7.22601453  F       0.00000000       0.00000000       0.00000000
O        3.17723643      11.24178275       4.71193793  F       0.00000000       0.00000000       0.00000000
O        4.76615980      10.01776795       9.26386696  T       0.00000000       0.00000000       0.00000000
O        4.76667471      12.48515405       9.26077997  T       0.00000000       0.00000000       0.00000000
O        3.17836744       8.04315784      10.40929717  T       0.00000000       0.00000000       0.00000000
O        3.17877394       8.01181228       7.94096225  T       0.00000000       0.00000000       0.00000000
O        4.76890796       6.82865564      12.67241958  T       0.00000000       0.00000000       0.00000000
O        4.76890951       9.27389375      12.68091965  T       0.00000000       0.00000000       0.00000000
O        3.18269702      11.26246375      13.70411366  T       0.00000000       0.00000000       0.00000000
O        3.17973940      11.27611260      11.21727644  T       0.00000000       0.00000000       0.00000000
O        7.94309108       3.58439162       2.73351527  F       0.00000000       0.00000000       0.00000000
O        7.94637985       0.40758181      12.67957916  T       0.00000000       0.00000000       0.00000000
O        3.17698475       1.60458360       7.94241364  T       0.00000000       0.00000000       0.00000000
O        3.17803700       1.61895293      10.41232423  T       0.00000000       0.00000000       0.00000000
O        4.76583238       6.79706024       6.08593407  F       0.00000000       0.00000000       0.00000000
O        6.35488665       4.84677591      13.70227465  T       0.00000000       0.00000000       0.00000000
O        4.76720662       6.06197302       9.28721831  T       0.00000000       0.00000000       0.00000000
O        6.35681206       4.80432301      11.21659240  T       0.00000000       0.00000000       0.00000000
O        7.94309108      10.00826748       2.73351527  F       0.00000000       0.00000000       0.00000000
O        7.94309108      12.47529802       2.73351527  F       0.00000000       0.00000000       0.00000000
O        6.35447286       8.02984482       3.96703054  F       0.00000000       0.00000000       0.00000000
O        6.35447286       8.02984482       1.50000000  F       0.00000000       0.00000000       0.00000000
O        7.94309077       6.79706319       6.08592610  F       0.00000000       0.00000000       0.00000000
O        6.35446208      11.24178289       7.22597601  F       0.00000000       0.00000000       0.00000000
O        6.35447286      11.24178275       4.71193793  F       0.00000000       0.00000000       0.00000000
O        7.94365869      10.01774350       9.26831206  T       0.00000000       0.00000000       0.00000000
O        7.94309115       9.26262662       6.08591614  F       0.00000000       0.00000000       0.00000000
O        6.35707433       8.04970683      10.41217280  T       0.00000000       0.00000000       0.00000000
O        4.76712691       3.59453552       9.24429883  T       0.00000000       0.00000000       0.00000000
O        7.94411821      12.48559614       9.26078222  T       0.00000000       0.00000000       0.00000000
O        3.17723643       4.81790689       4.71193793  F       0.00000000       0.00000000       0.00000000
O        6.35447286       1.60596896       3.96703054  F       0.00000000       0.00000000       0.00000000
O        7.94309701       0.37317906       6.08592278  F       0.00000000       0.00000000       0.00000000
O        7.94309108       6.05142216       2.73351527  F       0.00000000       0.00000000       0.00000000
O        7.94624887       6.83111342      12.67020593  T       0.00000000       0.00000000       0.00000000
O        6.35368291       8.01366444       7.94050587  T       0.00000000       0.00000000       0.00000000
O        7.94594211       9.26975644      12.67579219  T       0.00000000       0.00000000       0.00000000
Pd       4.76586017      11.24177762       5.96678586  F       0.00000000       0.00000000       0.00000000
Pd       4.76790432      11.26419312      12.46879929  T       0.00000000       0.00000000       0.00000000
Pd       3.18140586       8.05196844      12.38902069  T       0.00000000       0.00000000       0.00000000
Pd       1.59116390      11.26008245      12.46997147  T       0.00000000       0.00000000       0.00000000
Pd       3.17725104       8.02984249       5.93124939  F       0.00000000       0.00000000       0.00000000
Pd       9.53167951       8.02984246       5.93125040  F       0.00000000       0.00000000       0.00000000
Pd       7.94309108       1.60596896       2.73351527  F       0.00000000       0.00000000       0.00000000
Pd       6.35447286       4.81790689       2.73351527  F       0.00000000       0.00000000       0.00000000
Pd       1.58862042      11.24178075       5.96678264  F       0.00000000       0.00000000       0.00000000
Pd       9.53634377       8.04893646      12.38082736  T       0.00000000       0.00000000       0.00000000
Pd       6.35647909       1.62639055      12.39436668  T       0.00000000       0.00000000       0.00000000
Pd       6.35446907       1.60596427       5.93125186  F       0.00000000       0.00000000       0.00000000
Pd       0.00000000      11.24178275       2.73351527  F       0.00000000       0.00000000       0.00000000
Pd       1.58861822       8.02984482       2.73351527  F       0.00000000       0.00000000       0.00000000
Pd       7.94354814       1.61611654       9.16825104  T       0.00000000       0.00000000       0.00000000
Pd       6.35536500       4.82944197       9.22212282  T       0.00000000       0.00000000       0.00000000
Pd       3.17723643      11.24178275       2.73351527  F       0.00000000       0.00000000       0.00000000
Pd       4.76585465       8.02984482       2.73351527  F       0.00000000       0.00000000       0.00000000
Pd       9.53304243       1.62858548      12.39783490  T       0.00000000       0.00000000       0.00000000
Pd       4.76708757       8.03987225       9.16472650  T       0.00000000       0.00000000       0.00000000
Pd       1.58929510       8.03864775       9.16261173  T       0.00000000       0.00000000       0.00000000
Pd       7.94307467       4.81790887       5.96677722  F       0.00000000       0.00000000       0.00000000
Pd       9.53255702      11.25171631       9.22239488  T       0.00000000       0.00000000       0.00000000
Pd       9.53214127       4.82800433       9.22230589  T       0.00000000       0.00000000       0.00000000
Pd       7.94481558       4.83856008      12.46974447  T       0.00000000       0.00000000       0.00000000
Pd       4.76585465       1.60596896       2.73351527  F       0.00000000       0.00000000       0.00000000
Pd       4.76818745       4.83584066      12.46665264  T       0.00000000       0.00000000       0.00000000
Pd       7.94307042      11.24177723       5.96677003  F       0.00000000       0.00000000       0.00000000
Pd       6.35446228       8.02984189       5.93125037  F       0.00000000       0.00000000       0.00000000
Pd       6.35447286      11.24178275       2.73351527  F       0.00000000       0.00000000       0.00000000
Pd       7.94309108       8.02984482       2.73351527  F       0.00000000       0.00000000       0.00000000
Pd       3.17710590       1.62704202      12.39348731  T       0.00000000       0.00000000       0.00000000
Pd       1.58868546       1.61643803       9.16803288  T       0.00000000       0.00000000       0.00000000
Pd       3.17773154      11.25223889       9.22211701  T       0.00000000       0.00000000       0.00000000
Pd       7.94235581       8.03925338       9.16176289  T       0.00000000       0.00000000       0.00000000
Pd       6.35536656      11.25185646       9.22171768  T       0.00000000       0.00000000       0.00000000
Pd       1.58861839       4.81790857       5.96677563  F       0.00000000       0.00000000       0.00000000
Pd       4.76586828       4.81790686       5.96677661  F       0.00000000       0.00000000       0.00000000
Pd       3.17841174       4.82914580       9.22161432  T       0.00000000       0.00000000       0.00000000
Pd       4.76643778       1.61599640       9.16526829  T       0.00000000       0.00000000       0.00000000
Pd       7.94479048      11.26129769      12.46965741  T       0.00000000       0.00000000       0.00000000
Pd       6.35814937       8.05119633      12.39419158  T       0.00000000       0.00000000       0.00000000
Pd       3.17725665       1.60596829       5.93125128  F       0.00000000       0.00000000       0.00000000
Pd       0.00000000       4.81790689       2.73351527  F       0.00000000       0.00000000       0.00000000
Pd       9.53168164       1.60596920       5.93125239  F       0.00000000       0.00000000       0.00000000
Pd       3.17723643       4.81790689       2.73351527  F       0.00000000       0.00000000       0.00000000
Pd       1.59128261       4.83822363      12.46660407  T       0.00000000       0.00000000       0.00000000
Pd       1.58861822       1.60596896       2.73351527  F       0.00000000       0.00000000       0.00000000
C       -0.09097743       8.47679789      15.60468257  T       0.00000000       0.00000000       0.00000000
O       -1.00782214       8.57211398      16.28630582  T       0.00000000       0.00000000       0.00000000
