146
Lattice="9.531709292017604 0.0 0.0 0.0 12.847751714415933 0.0 0.0 0.0 32.10284432209217" Properties=species:S:1:pos:R:3:move_mask:L:1:momenta:R:3 adsorbate_info="_JSON {\"site\": {\"coordinates\": [4.765856735593943, 11.909435596411605, 13.32129691600783], \"connectivity\": 3, \"topology\": [50, 53, 67], \"n_vector\": [-0.0019797185358329528, 0.3829140747443721, 0.9237818422534513], \"h_vector\": [0.5788090824795062, 0.7297784864358635, -0.36387278927478545], \"site_formula\": {\"O\": 3}}, \"smiles\": \"Cl[C]=O\", \"mdf\": 2.782116819786556, \"adsorbate_formula\": \"CO\"}" mace_E=-754.0016748604544 converged=T n_steps=94 d_min=1.1794953276469584 site_type=bridge dE_rel_meV=0 original_idx=66 rank=1 E_MACE=-756.5792241790562 pbc="T T T"
O        3.18227896       4.52126993      11.20943752  T       0.00000000       0.00000000       0.00000000
O        1.59347400       0.33081365      12.52446572  T       0.00000000       0.00000000       0.00000000
O        1.59448672       2.76410928      12.76697394  T       0.00000000       0.00000000       0.00000000
O        9.53960743       4.87621341      13.68100563  T       0.00000000       0.00000000       0.00000000
O        0.00521976       4.52190400      11.21125292  T       0.00000000       0.00000000       0.00000000
O        1.58861822      10.00826748       2.73351527  F       0.00000000       0.00000000       0.00000000
O        1.58861822      12.47529802       2.73351527  F       0.00000000       0.00000000       0.00000000
O        4.76584344       2.83874884       6.08591509  F       0.00000000       0.00000000       0.00000000
O        0.00000000       8.02984482       1.50000000  F       0.00000000       0.00000000       0.00000000
O        1.58861107       6.79705424       6.08592811  F       0.00000000       0.00000000       0.00000000
O        9.53394158       1.34794160       7.94712600  T       0.00000000       0.00000000       0.00000000
O        1.58861150       9.26263623       6.08591827  F       0.00000000       0.00000000       0.00000000
O        4.76583598       0.37317881       6.08593111  F       0.00000000       0.00000000       0.00000000
O        6.35924230      10.94322133      11.20605672  T       0.00000000       0.00000000       0.00000000
O        3.17723028       4.81790423       7.22598268  F       0.00000000       0.00000000       0.00000000
O        6.35447286       1.60596896       1.50000000  F       0.00000000       0.00000000       0.00000000
O        7.94309377       2.83875127       6.08591528  F       0.00000000       0.00000000       0.00000000
O        6.35447101       4.81790868       7.22598243  F       0.00000000       0.00000000       0.00000000
O        6.35447286       4.81790689       4.71193793  F       0.00000000       0.00000000       0.00000000
O        7.94579715       3.57482352       8.93053482  T       0.00000000       0.00000000       0.00000000
O        7.94676702       6.03883048       9.53179901  T       0.00000000       0.00000000       0.00000000
O        0.00000338      11.24178289       7.22597220  F       0.00000000       0.00000000       0.00000000
O        1.59159781       6.04056737       9.53269979  T       0.00000000       0.00000000       0.00000000
O        1.59094428       3.57478378       8.93190178  T       0.00000000       0.00000000       0.00000000
O        0.00000000       4.81790689       4.71193793  F       0.00000000       0.00000000       0.00000000
O        1.59204346      12.46129879       9.53304815  T       0.00000000       0.00000000       0.00000000
O        0.00241900       8.29070154      10.40104528  T       0.00000000       0.00000000       0.00000000
O        0.00738975      10.94349813      11.20937042  T       0.00000000       0.00000000       0.00000000
O        4.76585465       6.05142216       2.73351527  F       0.00000000       0.00000000       0.00000000
O        9.53369076       7.78618990       7.94947253  T       0.00000000       0.00000000       0.00000000
O        3.17723643       1.60596896       3.96703054  F       0.00000000       0.00000000       0.00000000
O        9.53789203      11.29205883      13.68383558  T       0.00000000       0.00000000       0.00000000
O        1.59805312       9.18818045      12.77653999  T       0.00000000       0.00000000       0.00000000
O        4.76585465       3.58439162       2.73351527  F       0.00000000       0.00000000       0.00000000
O        1.59436454       6.75429307      12.52967888  T       0.00000000       0.00000000       0.00000000
O        3.17723643       1.60596896       1.50000000  F       0.00000000       0.00000000       0.00000000
O        0.00000000       8.02984482       3.96703054  F       0.00000000       0.00000000       0.00000000
O        1.59056232      10.00087732       8.92858542  T       0.00000000       0.00000000       0.00000000
O        0.00000000      11.24178275       4.71193793  F       0.00000000       0.00000000       0.00000000
O        1.58861822       3.58439162       2.73351527  F       0.00000000       0.00000000       0.00000000
O        1.58861822       6.05142216       2.73351527  F       0.00000000       0.00000000       0.00000000
O        0.00000000       1.60596896       3.96703054  F       0.00000000       0.00000000       0.00000000
O        0.00000000       1.60596896       1.50000000  F       0.00000000       0.00000000       0.00000000
O        1.58861510       0.37317604       6.08592568  F       0.00000000       0.00000000       0.00000000
O        1.58861475       2.83876150       6.08591621  F       0.00000000       0.00000000       0.00000000
O        0.00000677       4.81790638       7.22598148  F       0.00000000       0.00000000       0.00000000
O        6.35745948       1.86037191      10.39710793  T       0.00000000       0.00000000       0.00000000
O        6.35647634       1.34982783       7.94711061  T       0.00000000       0.00000000       0.00000000
O        0.00304915       1.86015530      10.39776882  T       0.00000000       0.00000000       0.00000000
O        7.94851251       2.76340882      12.77117759  T       0.00000000       0.00000000       0.00000000
O        4.77071703       0.33240576      12.51979696  T       0.00000000       0.00000000       0.00000000
O        4.77030366       2.76391889      12.76634300  T       0.00000000       0.00000000       0.00000000
O        3.18265175       4.87500011      13.68056899  T       0.00000000       0.00000000       0.00000000
O        6.35915928      11.31984421      13.67696388  T       0.00000000       0.00000000       0.00000000
O        4.76585465      10.00826748       2.73351527  F       0.00000000       0.00000000       0.00000000
O        4.76585465      12.47529802       2.73351527  F       0.00000000       0.00000000       0.00000000
O        3.17723643       8.02984482       3.96703054  F       0.00000000       0.00000000       0.00000000
O        3.17723643       8.02984482       1.50000000  F       0.00000000       0.00000000       0.00000000
O        4.76583213       9.26262741       6.08592309  F       0.00000000       0.00000000       0.00000000
O        3.17722243      11.24178386       7.22601453  F       0.00000000       0.00000000       0.00000000
O        3.17723643      11.24178275       4.71193793  F       0.00000000       0.00000000       0.00000000
O        4.76899101      10.00004039       8.93089556  T       0.00000000       0.00000000       0.00000000
O        4.76866306      12.46076334       9.53195477  T       0.00000000       0.00000000       0.00000000
O        3.18004434       8.28545493      10.40023588  T       0.00000000       0.00000000       0.00000000
O        3.17900686       7.78146346       7.95062990  T       0.00000000       0.00000000       0.00000000
O        4.77050547       6.75476010      12.53066496  T       0.00000000       0.00000000       0.00000000
O        4.76976467       9.19162901      12.76995390  T       0.00000000       0.00000000       0.00000000
O        3.18667933      11.31084909      13.68371767  T       0.00000000       0.00000000       0.00000000
O        3.18147834      10.94484887      11.20728487  T       0.00000000       0.00000000       0.00000000
O        7.94309108       3.58439162       2.73351527  F       0.00000000       0.00000000       0.00000000
O        7.95011412       0.33032276      12.52661328  T       0.00000000       0.00000000       0.00000000
O        3.17900764       1.35170738       7.94764110  T       0.00000000       0.00000000       0.00000000
O        3.18040305       1.86280079      10.39622107  T       0.00000000       0.00000000       0.00000000
O        4.76583238       6.79706024       6.08593407  F       0.00000000       0.00000000       0.00000000
O        6.35886669       4.87012360      13.67984604  T       0.00000000       0.00000000       0.00000000
O        4.76777131       6.03932576       9.53101439  T       0.00000000       0.00000000       0.00000000
O        6.35974811       4.52108208      11.21056086  T       0.00000000       0.00000000       0.00000000
O        7.94309108      10.00826748       2.73351527  F       0.00000000       0.00000000       0.00000000
O        7.94309108      12.47529802       2.73351527  F       0.00000000       0.00000000       0.00000000
O        6.35447286       8.02984482       3.96703054  F       0.00000000       0.00000000       0.00000000
O        6.35447286       8.02984482       1.50000000  F       0.00000000       0.00000000       0.00000000
O        7.94309077       6.79706319       6.08592610  F       0.00000000       0.00000000       0.00000000
O        6.35446208      11.24178289       7.22597601  F       0.00000000       0.00000000       0.00000000
O        6.35447286      11.24178275       4.71193793  F       0.00000000       0.00000000       0.00000000
O        7.94625892      10.00013551       8.92980889  T       0.00000000       0.00000000       0.00000000
O        7.94309115       9.26262662       6.08591614  F       0.00000000       0.00000000       0.00000000
O        6.35852774       8.28364733      10.40250191  T       0.00000000       0.00000000       0.00000000
O        4.76862823       3.57424034       8.93125243  T       0.00000000       0.00000000       0.00000000
O        7.94619405      12.46148402       9.53349875  T       0.00000000       0.00000000       0.00000000
O        3.17723643       4.81790689       4.71193793  F       0.00000000       0.00000000       0.00000000
O        6.35447286       1.60596896       3.96703054  F       0.00000000       0.00000000       0.00000000
O        7.94309701       0.37317906       6.08592278  F       0.00000000       0.00000000       0.00000000
O        7.94309108       6.05142216       2.73351527  F       0.00000000       0.00000000       0.00000000
O        7.94843328       6.75508370      12.53423764  T       0.00000000       0.00000000       0.00000000
O        6.35702268       7.78339728       7.94955988  T       0.00000000       0.00000000       0.00000000
O        7.94681860       9.18849418      12.77498825  T       0.00000000       0.00000000       0.00000000
Pd       4.76586017      11.24177762       5.96678586  F       0.00000000       0.00000000       0.00000000
Pd       4.77036411      11.18325641      12.45121406  T       0.00000000       0.00000000       0.00000000
Pd       3.18358684       7.98356351      12.36893738  T       0.00000000       0.00000000       0.00000000
Pd       1.59623670      11.17836719      12.45745793  T       0.00000000       0.00000000       0.00000000
Pd       3.17725104       8.02984249       5.93124939  F       0.00000000       0.00000000       0.00000000
Pd       9.53167951       8.02984246       5.93125040  F       0.00000000       0.00000000       0.00000000
Pd       7.94309108       1.60596896       2.73351527  F       0.00000000       0.00000000       0.00000000
Pd       6.35447286       4.81790689       2.73351527  F       0.00000000       0.00000000       0.00000000
Pd       1.58862042      11.24178075       5.96678264  F       0.00000000       0.00000000       0.00000000
Pd       9.53737034       7.98454276      12.37076110  T       0.00000000       0.00000000       0.00000000
Pd       6.36038186       1.56037898      12.36689894  T       0.00000000       0.00000000       0.00000000
Pd       6.35446907       1.60596427       5.93125186  F       0.00000000       0.00000000       0.00000000
Pd       0.00000000      11.24178275       2.73351527  F       0.00000000       0.00000000       0.00000000
Pd       1.58861822       8.02984482       2.73351527  F       0.00000000       0.00000000       0.00000000
Pd       7.94589313       1.58917372       9.16909663  T       0.00000000       0.00000000       0.00000000
Pd       6.35714735       4.80042732       9.23781079  T       0.00000000       0.00000000       0.00000000
Pd       3.17723643      11.24178275       2.73351527  F       0.00000000       0.00000000       0.00000000
Pd       4.76585465       8.02984482       2.73351527  F       0.00000000       0.00000000       0.00000000
Pd       9.53696821       1.56081307      12.36733892  T       0.00000000       0.00000000       0.00000000
Pd       4.76896768       8.01339171       9.17264344  T       0.00000000       0.00000000       0.00000000
Pd       1.59054290       8.01456508       9.17297583  T       0.00000000       0.00000000       0.00000000
Pd       7.94307467       4.81790887       5.96677722  F       0.00000000       0.00000000       0.00000000
Pd       9.53470998      11.22492791       9.23828624  T       0.00000000       0.00000000       0.00000000
Pd       9.53482005       4.80051203       9.23817761  T       0.00000000       0.00000000       0.00000000
Pd       7.94895683       4.75454244      12.45615291  T       0.00000000       0.00000000       0.00000000
Pd       4.76585465       1.60596896       2.73351527  F       0.00000000       0.00000000       0.00000000
Pd       4.77087111       4.75500771      12.45411387  T       0.00000000       0.00000000       0.00000000
Pd       7.94307042      11.24177723       5.96677003  F       0.00000000       0.00000000       0.00000000
Pd       6.35446228       8.02984189       5.93125037  F       0.00000000       0.00000000       0.00000000
Pd       6.35447286      11.24178275       2.73351527  F       0.00000000       0.00000000       0.00000000
Pd       7.94309108       8.02984482       2.73351527  F       0.00000000       0.00000000       0.00000000
Pd       3.18213262       1.56120039      12.36493186  T       0.00000000       0.00000000       0.00000000
Pd       1.59102135       1.58860941       9.16966685  T       0.00000000       0.00000000       0.00000000
Pd       3.17984236      11.22347021       9.23645185  T       0.00000000       0.00000000       0.00000000
Pd       7.94607590       8.01349742       9.17287367  T       0.00000000       0.00000000       0.00000000
Pd       6.35762886      11.22419807       9.23669590  T       0.00000000       0.00000000       0.00000000
Pd       1.58861839       4.81790857       5.96677563  F       0.00000000       0.00000000       0.00000000
Pd       4.76586828       4.81790686       5.96677661  F       0.00000000       0.00000000       0.00000000
Pd       3.17970384       4.79993327       9.23706500  T       0.00000000       0.00000000       0.00000000
Pd       4.76858087       1.58843310       9.16930844  T       0.00000000       0.00000000       0.00000000
Pd       7.94990382      11.17811963      12.45388696  T       0.00000000       0.00000000       0.00000000
Pd       6.35848103       7.98488988      12.37243252  T       0.00000000       0.00000000       0.00000000
Pd       3.17725665       1.60596829       5.93125128  F       0.00000000       0.00000000       0.00000000
Pd       0.00000000       4.81790689       2.73351527  F       0.00000000       0.00000000       0.00000000
Pd       9.53168164       1.60596920       5.93125239  F       0.00000000       0.00000000       0.00000000
Pd       3.17723643       4.81790689       2.73351527  F       0.00000000       0.00000000       0.00000000
Pd       1.59477158       4.75490178      12.45429793  T       0.00000000       0.00000000       0.00000000
Pd       1.58861822       1.60596896       2.73351527  F       0.00000000       0.00000000       0.00000000
C        5.10670297      10.26630864      16.22537805  T       0.00000000       0.00000000       0.00000000
O        5.36571516       9.15406374      16.11127672  T       0.00000000       0.00000000       0.00000000
