146
Lattice="9.531709292017604 0.0 0.0 0.0 12.847751714415933 0.0 0.0 0.0 32.10284432209217" Properties=species:S:1:pos:R:3:move_mask:L:1:momenta:R:3 adsorbate_info="_JSON {\"site\": {\"coordinates\": [7.943094349955685, 9.238817683046731, 12.655488365985335], \"connectivity\": 1, \"topology\": [95], \"n_vector\": [0.029363763607903173, -0.24520516838538034, 0.969026415937087], \"h_vector\": [1.0, 0.0, 0.0], \"site_formula\": {\"O\": 1}}, \"smiles\": \"Cl[C]=O\", \"mdf\": 2.2069012381505306, \"adsorbate_formula\": \"CO\"}" mace_E=-754.004462827141 converged=T n_steps=83 d_min=3.216310964631711 site_type=hollow dE_rel_meV=0 original_idx=105 rank=65 E_MACE=-754.0340999199002 pbc="T T T"
O        3.17696888       4.48805107      11.20770415  T       0.00000000       0.00000000       0.00000000
O        1.58960028       0.29498469      12.51812867  T       0.00000000       0.00000000       0.00000000
O        1.58859147       2.72806871      12.76266651  T       0.00000000       0.00000000       0.00000000
O        9.52904271       4.83149389      13.67990630  T       0.00000000       0.00000000       0.00000000
O        0.00016129       4.48878540      11.20894905  T       0.00000000       0.00000000       0.00000000
O        1.58861822      10.00826748       2.73351527  F       0.00000000       0.00000000       0.00000000
O        1.58861822      12.47529802       2.73351527  F       0.00000000       0.00000000       0.00000000
O        4.76584344       2.83874884       6.08591509  F       0.00000000       0.00000000       0.00000000
O        0.00000000       8.02984482       1.50000000  F       0.00000000       0.00000000       0.00000000
O        1.58861107       6.79705424       6.08592811  F       0.00000000       0.00000000       0.00000000
O        9.53085723       1.33740440       7.94257012  T       0.00000000       0.00000000       0.00000000
O        1.58861150       9.26263623       6.08591827  F       0.00000000       0.00000000       0.00000000
O        4.76583598       0.37317881       6.08593111  F       0.00000000       0.00000000       0.00000000
O        6.35604722      10.89920502      11.20505224  T       0.00000000       0.00000000       0.00000000
O        3.17723028       4.81790423       7.22598268  F       0.00000000       0.00000000       0.00000000
O        6.35447286       1.60596896       1.50000000  F       0.00000000       0.00000000       0.00000000
O        7.94309377       2.83875127       6.08591528  F       0.00000000       0.00000000       0.00000000
O        6.35447101       4.81790868       7.22598243  F       0.00000000       0.00000000       0.00000000
O        6.35447286       4.81790689       4.71193793  F       0.00000000       0.00000000       0.00000000
O        7.94391789       3.54757718       8.93497469  T       0.00000000       0.00000000       0.00000000
O        7.94424310       6.00651387       9.53071086  T       0.00000000       0.00000000       0.00000000
O        0.00000338      11.24178289       7.22597220  F       0.00000000       0.00000000       0.00000000
O        1.58868693       6.00687160       9.53088578  T       0.00000000       0.00000000       0.00000000
O        1.58865418       3.54819333       8.93405892  T       0.00000000       0.00000000       0.00000000
O        0.00000000       4.81790689       4.71193793  F       0.00000000       0.00000000       0.00000000
O        1.58910989      12.43145877       9.52390415  T       0.00000000       0.00000000       0.00000000
O        0.00046909       8.24716675      10.40253676  T       0.00000000       0.00000000       0.00000000
O        0.00095649      10.90411661      11.20530920  T       0.00000000       0.00000000       0.00000000
O        4.76585465       6.05142216       2.73351527  F       0.00000000       0.00000000       0.00000000
O        9.53232997       7.75986607       7.94679635  T       0.00000000       0.00000000       0.00000000
O        3.17723643       1.60596896       3.96703054  F       0.00000000       0.00000000       0.00000000
O        9.53413290      11.27844695      13.67658460  T       0.00000000       0.00000000       0.00000000
O        1.58838707       9.15687305      12.77162193  T       0.00000000       0.00000000       0.00000000
O        4.76585465       3.58439162       2.73351527  F       0.00000000       0.00000000       0.00000000
O        1.58847356       6.71968700      12.53530301  T       0.00000000       0.00000000       0.00000000
O        3.17723643       1.60596896       1.50000000  F       0.00000000       0.00000000       0.00000000
O        0.00000000       8.02984482       3.96703054  F       0.00000000       0.00000000       0.00000000
O        1.58869306       9.97003990       8.92429600  T       0.00000000       0.00000000       0.00000000
O        0.00000000      11.24178275       4.71193793  F       0.00000000       0.00000000       0.00000000
O        1.58861822       3.58439162       2.73351527  F       0.00000000       0.00000000       0.00000000
O        1.58861822       6.05142216       2.73351527  F       0.00000000       0.00000000       0.00000000
O        0.00000000       1.60596896       3.96703054  F       0.00000000       0.00000000       0.00000000
O        0.00000000       1.60596896       1.50000000  F       0.00000000       0.00000000       0.00000000
O        1.58861510       0.37317604       6.08592568  F       0.00000000       0.00000000       0.00000000
O        1.58861475       2.83876150       6.08591621  F       0.00000000       0.00000000       0.00000000
O        0.00000677       4.81790638       7.22598148  F       0.00000000       0.00000000       0.00000000
O        6.35447055       1.81854087      10.39059099  T       0.00000000       0.00000000       0.00000000
O        6.35444783       1.34181388       7.94127207  T       0.00000000       0.00000000       0.00000000
O       -0.00018904       1.82026713      10.39159150  T       0.00000000       0.00000000       0.00000000
O        7.94319934       2.72954002      12.76027260  T       0.00000000       0.00000000       0.00000000
O        4.76625401       0.29630189      12.51355529  T       0.00000000       0.00000000       0.00000000
O        4.76675519       2.72988063      12.76058555  T       0.00000000       0.00000000       0.00000000
O        3.18095086       4.83255690      13.67692384  T       0.00000000       0.00000000       0.00000000
O        6.35445244      11.27477800      13.68150760  T       0.00000000       0.00000000       0.00000000
O        4.76585465      10.00826748       2.73351527  F       0.00000000       0.00000000       0.00000000
O        4.76585465      12.47529802       2.73351527  F       0.00000000       0.00000000       0.00000000
O        3.17723643       8.02984482       3.96703054  F       0.00000000       0.00000000       0.00000000
O        3.17723643       8.02984482       1.50000000  F       0.00000000       0.00000000       0.00000000
O        4.76583213       9.26262741       6.08592309  F       0.00000000       0.00000000       0.00000000
O        3.17722243      11.24178386       7.22601453  F       0.00000000       0.00000000       0.00000000
O        3.17723643      11.24178275       4.71193793  F       0.00000000       0.00000000       0.00000000
O        4.76569482       9.96995298       8.92351021  T       0.00000000       0.00000000       0.00000000
O        4.76720093      12.43019236       9.52434100  T       0.00000000       0.00000000       0.00000000
O        3.17524339       8.25085246      10.40245966  T       0.00000000       0.00000000       0.00000000
O        3.17650314       7.75965519       7.94627941  T       0.00000000       0.00000000       0.00000000
O        4.76711419       6.71934436      12.52392845  T       0.00000000       0.00000000       0.00000000
O        4.77119874       9.15500115      12.75638720  T       0.00000000       0.00000000       0.00000000
O        3.17736406      11.27500303      13.67695158  T       0.00000000       0.00000000       0.00000000
O        3.17642458      10.90639825      11.20453606  T       0.00000000       0.00000000       0.00000000
O        7.94309108       3.58439162       2.73351527  F       0.00000000       0.00000000       0.00000000
O        7.94350010       0.29646005      12.51067649  T       0.00000000       0.00000000       0.00000000
O        3.17812204       1.33886522       7.94233365  T       0.00000000       0.00000000       0.00000000
O        3.17759544       1.81914403      10.39133879  T       0.00000000       0.00000000       0.00000000
O        4.76583238       6.79706024       6.08593407  F       0.00000000       0.00000000       0.00000000
O        6.35480002       4.83468840      13.68384502  T       0.00000000       0.00000000       0.00000000
O        4.76476575       6.00661968       9.52905536  T       0.00000000       0.00000000       0.00000000
O        6.35521653       4.48865695      11.20716672  T       0.00000000       0.00000000       0.00000000
O        7.94309108      10.00826748       2.73351527  F       0.00000000       0.00000000       0.00000000
O        7.94309108      12.47529802       2.73351527  F       0.00000000       0.00000000       0.00000000
O        6.35447286       8.02984482       3.96703054  F       0.00000000       0.00000000       0.00000000
O        6.35447286       8.02984482       1.50000000  F       0.00000000       0.00000000       0.00000000
O        7.94309077       6.79706319       6.08592610  F       0.00000000       0.00000000       0.00000000
O        6.35446208      11.24178289       7.22597601  F       0.00000000       0.00000000       0.00000000
O        6.35447286      11.24178275       4.71193793  F       0.00000000       0.00000000       0.00000000
O        7.94370688       9.97029098       8.92325508  T       0.00000000       0.00000000       0.00000000
O        7.94309115       9.26262662       6.08591614  F       0.00000000       0.00000000       0.00000000
O        6.35548990       8.24820417      10.39687348  T       0.00000000       0.00000000       0.00000000
O        4.76512986       3.54768535       8.93422964  T       0.00000000       0.00000000       0.00000000
O        7.94194871      12.42986505       9.52512865  T       0.00000000       0.00000000       0.00000000
O        3.17723643       4.81790689       4.71193793  F       0.00000000       0.00000000       0.00000000
O        6.35447286       1.60596896       3.96703054  F       0.00000000       0.00000000       0.00000000
O        7.94309701       0.37317906       6.08592278  F       0.00000000       0.00000000       0.00000000
O        7.94309108       6.05142216       2.73351527  F       0.00000000       0.00000000       0.00000000
O        7.94159482       6.71897877      12.53902885  T       0.00000000       0.00000000       0.00000000
O        6.35438719       7.75867438       7.94443623  T       0.00000000       0.00000000       0.00000000
O        7.93727630       9.15378020      12.77261142  T       0.00000000       0.00000000       0.00000000
Pd       4.76586017      11.24177762       5.96678586  F       0.00000000       0.00000000       0.00000000
Pd       4.76722653      11.14506680      12.45005652  T       0.00000000       0.00000000       0.00000000
Pd       3.17828714       7.94987353      12.37094729  T       0.00000000       0.00000000       0.00000000
Pd       1.58905093      11.14386352      12.45151137  T       0.00000000       0.00000000       0.00000000
Pd       3.17725104       8.02984249       5.93124939  F       0.00000000       0.00000000       0.00000000
Pd       9.53167951       8.02984246       5.93125040  F       0.00000000       0.00000000       0.00000000
Pd       7.94309108       1.60596896       2.73351527  F       0.00000000       0.00000000       0.00000000
Pd       6.35447286       4.81790689       2.73351527  F       0.00000000       0.00000000       0.00000000
Pd       1.58862042      11.24178075       5.96678264  F       0.00000000       0.00000000       0.00000000
Pd       9.52872609       7.95011993      12.37448251  T       0.00000000       0.00000000       0.00000000
Pd       6.35459065       1.52755971      12.35689226  T       0.00000000       0.00000000       0.00000000
Pd       6.35446907       1.60596427       5.93125186  F       0.00000000       0.00000000       0.00000000
Pd       0.00000000      11.24178275       2.73351527  F       0.00000000       0.00000000       0.00000000
Pd       1.58861822       8.02984482       2.73351527  F       0.00000000       0.00000000       0.00000000
Pd       7.94310666       1.55812415       9.16512849  T       0.00000000       0.00000000       0.00000000
Pd       6.35463364       4.77096711       9.23608975  T       0.00000000       0.00000000       0.00000000
Pd       3.17723643      11.24178275       2.73351527  F       0.00000000       0.00000000       0.00000000
Pd       4.76585465       8.02984482       2.73351527  F       0.00000000       0.00000000       0.00000000
Pd       9.53285322       1.52511927      12.35811643  T       0.00000000       0.00000000       0.00000000
Pd       4.76494608       7.98292118       9.17050972  T       0.00000000       0.00000000       0.00000000
Pd       1.58837963       7.98247122       9.17219456  T       0.00000000       0.00000000       0.00000000
Pd       7.94307467       4.81790887       5.96677722  F       0.00000000       0.00000000       0.00000000
Pd       9.53199069      11.19398230       9.23494292  T       0.00000000       0.00000000       0.00000000
Pd       9.53220516       4.77116454       9.23765637  T       0.00000000       0.00000000       0.00000000
Pd       7.94250048       4.71922232      12.45439406  T       0.00000000       0.00000000       0.00000000
Pd       4.76585465       1.60596896       2.73351527  F       0.00000000       0.00000000       0.00000000
Pd       4.76749140       4.71949773      12.45245407  T       0.00000000       0.00000000       0.00000000
Pd       7.94307042      11.24177723       5.96677003  F       0.00000000       0.00000000       0.00000000
Pd       6.35446228       8.02984189       5.93125037  F       0.00000000       0.00000000       0.00000000
Pd       6.35447286      11.24178275       2.73351527  F       0.00000000       0.00000000       0.00000000
Pd       7.94309108       8.02984482       2.73351527  F       0.00000000       0.00000000       0.00000000
Pd       3.17719765       1.52521180      12.35799028  T       0.00000000       0.00000000       0.00000000
Pd       1.58858657       1.55990702       9.16454410  T       0.00000000       0.00000000       0.00000000
Pd       3.17731196      11.19410323       9.23455068  T       0.00000000       0.00000000       0.00000000
Pd       7.94381139       7.98270309       9.17030421  T       0.00000000       0.00000000       0.00000000
Pd       6.35477752      11.19274697       9.23308189  T       0.00000000       0.00000000       0.00000000
Pd       1.58861839       4.81790857       5.96677563  F       0.00000000       0.00000000       0.00000000
Pd       4.76586828       4.81790686       5.96677661  F       0.00000000       0.00000000       0.00000000
Pd       3.17680424       4.77132649       9.23680205  T       0.00000000       0.00000000       0.00000000
Pd       4.76593207       1.55839719       9.16487242  T       0.00000000       0.00000000       0.00000000
Pd       7.94393829      11.14437799      12.45161320  T       0.00000000       0.00000000       0.00000000
Pd       6.35381571       7.94677256      12.36242711  T       0.00000000       0.00000000       0.00000000
Pd       3.17725665       1.60596829       5.93125128  F       0.00000000       0.00000000       0.00000000
Pd       0.00000000       4.81790689       2.73351527  F       0.00000000       0.00000000       0.00000000
Pd       9.53168164       1.60596920       5.93125239  F       0.00000000       0.00000000       0.00000000
Pd       3.17723643       4.81790689       2.73351527  F       0.00000000       0.00000000       0.00000000
Pd       1.58857411       4.71949286      12.45418947  T       0.00000000       0.00000000       0.00000000
Pd       1.58861822       1.60596896       2.73351527  F       0.00000000       0.00000000       0.00000000
C        6.54860983       8.73243809      15.95631800  T       0.00000000       0.00000000       0.00000000
O        5.44047713       8.46460483      15.83248170  T       0.00000000       0.00000000       0.00000000
