146
Lattice="9.531709292017604 0.0 0.0 0.0 12.847751714415933 0.0 0.0 0.0 32.10284432209217" Properties=species:S:1:pos:R:3:move_mask:L:1:momenta:R:3 adsorbate_info="_JSON {\"site\": {\"coordinates\": [0.5295359899923326, 3.079613963389985, 12.885470625862958], \"connectivity\": 3, \"topology\": [2, 3, 114], \"n_vector\": [-0.01966550148362837, -0.3244533756847218, 0.9456972428098679], \"h_vector\": [0.786424054808671, 0.5984793232497808, 0.1528388224921042], \"site_formula\": {\"O\": 2, \"Pd\": 1}}, \"smiles\": \"Cl[C]=O\", \"mdf\": 2.224936549762666, \"adsorbate_formula\": \"CO\"}" mace_E=-754.0217618021768 converged=T n_steps=69 d_min=1.1788455299470424 site_type=atop dE_rel_meV=0 original_idx=1 rank=4 E_MACE=-756.5760219975847 pbc="T T T"
O        3.17652920       5.13120173      11.21052426  T       0.00000000       0.00000000       0.00000000
O        1.58888856       0.46122703      12.78674927  T       0.00000000       0.00000000       0.00000000
O        1.58774085       2.89387239      12.52474918  T       0.00000000       0.00000000       0.00000000
O        9.53410566       4.77207348      13.68821430  T       0.00000000       0.00000000       0.00000000
O       -0.00082332       5.12543370      11.21429410  T       0.00000000       0.00000000       0.00000000
O        1.58861822      10.00826748       2.73351527  F       0.00000000       0.00000000       0.00000000
O        1.58861822      12.47529802       2.73351527  F       0.00000000       0.00000000       0.00000000
O        4.76584344       2.83874884       6.08591509  F       0.00000000       0.00000000       0.00000000
O        0.00000000       8.02984482       1.50000000  F       0.00000000       0.00000000       0.00000000
O        1.58861107       6.79705424       6.08592811  F       0.00000000       0.00000000       0.00000000
O        9.53057047       1.85610532       7.95083439  T       0.00000000       0.00000000       0.00000000
O        1.58861150       9.26263623       6.08591827  F       0.00000000       0.00000000       0.00000000
O        4.76583598       0.37317881       6.08593111  F       0.00000000       0.00000000       0.00000000
O        6.35334682      11.54482113      11.21274487  T       0.00000000       0.00000000       0.00000000
O        3.17723028       4.81790423       7.22598268  F       0.00000000       0.00000000       0.00000000
O        6.35447286       1.60596896       1.50000000  F       0.00000000       0.00000000       0.00000000
O        7.94309377       2.83875127       6.08591528  F       0.00000000       0.00000000       0.00000000
O        6.35447101       4.81790868       7.22598243  F       0.00000000       0.00000000       0.00000000
O        6.35447286       4.81790689       4.71193793  F       0.00000000       0.00000000       0.00000000
O        7.94335162       3.59964200       9.53675204  T       0.00000000       0.00000000       0.00000000
O        7.94332834       6.06217052       8.93840165  T       0.00000000       0.00000000       0.00000000
O        0.00000338      11.24178289       7.22597220  F       0.00000000       0.00000000       0.00000000
O        1.58912010       6.06072057       8.93547832  T       0.00000000       0.00000000       0.00000000
O        1.58851061       3.59979339       9.53673624  T       0.00000000       0.00000000       0.00000000
O        0.00000000       4.81790689       4.71193793  F       0.00000000       0.00000000       0.00000000
O        1.58722013      12.48350598       8.93458932  T       0.00000000       0.00000000       0.00000000
O       -0.00084779       7.78696243      10.40691089  T       0.00000000       0.00000000       0.00000000
O        0.00136177      11.54442364      11.21286010  T       0.00000000       0.00000000       0.00000000
O        4.76585465       6.05142216       2.73351527  F       0.00000000       0.00000000       0.00000000
O        9.53231246       8.27203011       7.95165397  T       0.00000000       0.00000000       0.00000000
O        3.17723643       1.60596896       3.96703054  F       0.00000000       0.00000000       0.00000000
O        9.53001698      11.19191711      13.68678793  T       0.00000000       0.00000000       0.00000000
O        1.58940297       9.31629810      12.54144995  T       0.00000000       0.00000000       0.00000000
O        4.76585465       3.58439162       2.73351527  F       0.00000000       0.00000000       0.00000000
O        1.58906517       6.88374912      12.77979082  T       0.00000000       0.00000000       0.00000000
O        3.17723643       1.60596896       1.50000000  F       0.00000000       0.00000000       0.00000000
O        0.00000000       8.02984482       3.96703054  F       0.00000000       0.00000000       0.00000000
O        1.58896666      10.02483616       9.53772819  T       0.00000000       0.00000000       0.00000000
O        0.00000000      11.24178275       4.71193793  F       0.00000000       0.00000000       0.00000000
O        1.58861822       3.58439162       2.73351527  F       0.00000000       0.00000000       0.00000000
O        1.58861822       6.05142216       2.73351527  F       0.00000000       0.00000000       0.00000000
O        0.00000000       1.60596896       3.96703054  F       0.00000000       0.00000000       0.00000000
O        0.00000000       1.60596896       1.50000000  F       0.00000000       0.00000000       0.00000000
O        1.58861510       0.37317604       6.08592568  F       0.00000000       0.00000000       0.00000000
O        1.58861475       2.83876150       6.08591621  F       0.00000000       0.00000000       0.00000000
O        0.00000677       4.81790638       7.22598148  F       0.00000000       0.00000000       0.00000000
O        6.35588384       1.35664405      10.40474761  T       0.00000000       0.00000000       0.00000000
O        6.35625859       1.85552510       7.95125955  T       0.00000000       0.00000000       0.00000000
O        0.00027021       1.35682563      10.40441673  T       0.00000000       0.00000000       0.00000000
O        7.94360088       2.89018546      12.54073626  T       0.00000000       0.00000000       0.00000000
O        4.76405604       0.46200337      12.78171110  T       0.00000000       0.00000000       0.00000000
O        4.76510803       2.89483101      12.51160449  T       0.00000000       0.00000000       0.00000000
O        3.17783580       4.76296807      13.68108170  T       0.00000000       0.00000000       0.00000000
O        6.35632608      11.19873802      13.68837994  T       0.00000000       0.00000000       0.00000000
O        4.76585465      10.00826748       2.73351527  F       0.00000000       0.00000000       0.00000000
O        4.76585465      12.47529802       2.73351527  F       0.00000000       0.00000000       0.00000000
O        3.17723643       8.02984482       3.96703054  F       0.00000000       0.00000000       0.00000000
O        3.17723643       8.02984482       1.50000000  F       0.00000000       0.00000000       0.00000000
O        4.76583213       9.26262741       6.08592309  F       0.00000000       0.00000000       0.00000000
O        3.17722243      11.24178386       7.22601453  F       0.00000000       0.00000000       0.00000000
O        3.17723643      11.24178275       4.71193793  F       0.00000000       0.00000000       0.00000000
O        4.76606154      10.02479784       9.53729483  T       0.00000000       0.00000000       0.00000000
O        4.76762622      12.48369610       8.93434028  T       0.00000000       0.00000000       0.00000000
O        3.17773199       7.79006167      10.40769236  T       0.00000000       0.00000000       0.00000000
O        3.17715044       8.27264063       7.95351790  T       0.00000000       0.00000000       0.00000000
O        4.76481716       6.88337416      12.77999697  T       0.00000000       0.00000000       0.00000000
O        4.76624775       9.31694813      12.54244778  T       0.00000000       0.00000000       0.00000000
O        3.17805624      11.19722091      13.69042782  T       0.00000000       0.00000000       0.00000000
O        3.17756041      11.54937242      11.21549452  T       0.00000000       0.00000000       0.00000000
O        7.94309108       3.58439162       2.73351527  F       0.00000000       0.00000000       0.00000000
O        7.94321021       0.46176004      12.77565244  T       0.00000000       0.00000000       0.00000000
O        3.17755760       1.85238632       7.95089822  T       0.00000000       0.00000000       0.00000000
O        3.17666440       1.35199573      10.39979924  T       0.00000000       0.00000000       0.00000000
O        4.76583238       6.79706024       6.08593407  F       0.00000000       0.00000000       0.00000000
O        6.35130548       4.77632515      13.68626206  T       0.00000000       0.00000000       0.00000000
O        4.76550720       6.06095989       8.93518046  T       0.00000000       0.00000000       0.00000000
O        6.35561995       5.12640480      11.21321869  T       0.00000000       0.00000000       0.00000000
O        7.94309108      10.00826748       2.73351527  F       0.00000000       0.00000000       0.00000000
O        7.94309108      12.47529802       2.73351527  F       0.00000000       0.00000000       0.00000000
O        6.35447286       8.02984482       3.96703054  F       0.00000000       0.00000000       0.00000000
O        6.35447286       8.02984482       1.50000000  F       0.00000000       0.00000000       0.00000000
O        7.94309077       6.79706319       6.08592610  F       0.00000000       0.00000000       0.00000000
O        6.35446208      11.24178289       7.22597601  F       0.00000000       0.00000000       0.00000000
O        6.35447286      11.24178275       4.71193793  F       0.00000000       0.00000000       0.00000000
O        7.94325142      10.02398120       9.54085279  T       0.00000000       0.00000000       0.00000000
O        7.94309115       9.26262662       6.08591614  F       0.00000000       0.00000000       0.00000000
O        6.35547560       7.78780239      10.40700007  T       0.00000000       0.00000000       0.00000000
O        4.76624179       3.60039777       9.53518689  T       0.00000000       0.00000000       0.00000000
O        7.94350548      12.48378146       8.93106315  T       0.00000000       0.00000000       0.00000000
O        3.17723643       4.81790689       4.71193793  F       0.00000000       0.00000000       0.00000000
O        6.35447286       1.60596896       3.96703054  F       0.00000000       0.00000000       0.00000000
O        7.94309701       0.37317906       6.08592278  F       0.00000000       0.00000000       0.00000000
O        7.94309108       6.05142216       2.73351527  F       0.00000000       0.00000000       0.00000000
O        7.94352771       6.88471409      12.77758708  T       0.00000000       0.00000000       0.00000000
O        6.35444650       8.27139613       7.95144072  T       0.00000000       0.00000000       0.00000000
O        7.94237179       9.31575039      12.54626526  T       0.00000000       0.00000000       0.00000000
Pd       4.76586017      11.24177762       5.96678586  F       0.00000000       0.00000000       0.00000000
Pd       4.76560401      11.31912614      12.46232902  T       0.00000000       0.00000000       0.00000000
Pd       3.17747106       8.08755115      12.37687981  T       0.00000000       0.00000000       0.00000000
Pd       1.58934150      11.31810093      12.46217309  T       0.00000000       0.00000000       0.00000000
Pd       3.17725104       8.02984249       5.93124939  F       0.00000000       0.00000000       0.00000000
Pd       9.53167951       8.02984246       5.93125040  F       0.00000000       0.00000000       0.00000000
Pd       7.94309108       1.60596896       2.73351527  F       0.00000000       0.00000000       0.00000000
Pd       6.35447286       4.81790689       2.73351527  F       0.00000000       0.00000000       0.00000000
Pd       1.58862042      11.24178075       5.96678264  F       0.00000000       0.00000000       0.00000000
Pd       9.53246389       8.08697294      12.37699200  T       0.00000000       0.00000000       0.00000000
Pd       6.35463574       1.66407503      12.37263389  T       0.00000000       0.00000000       0.00000000
Pd       6.35446907       1.60596427       5.93125186  F       0.00000000       0.00000000       0.00000000
Pd       0.00000000      11.24178275       2.73351527  F       0.00000000       0.00000000       0.00000000
Pd       1.58861822       8.02984482       2.73351527  F       0.00000000       0.00000000       0.00000000
Pd       7.94410657       1.62374103       9.17631766  T       0.00000000       0.00000000       0.00000000
Pd       6.35492332       4.83821451       9.24080835  T       0.00000000       0.00000000       0.00000000
Pd       3.17723643      11.24178275       2.73351527  F       0.00000000       0.00000000       0.00000000
Pd       4.76585465       8.02984482       2.73351527  F       0.00000000       0.00000000       0.00000000
Pd       9.53137506       1.66377646      12.37720229  T       0.00000000       0.00000000       0.00000000
Pd       4.76634626       8.04882837       9.17681136  T       0.00000000       0.00000000       0.00000000
Pd       1.58850186       8.04876604       9.17725259  T       0.00000000       0.00000000       0.00000000
Pd       7.94307467       4.81790887       5.96677722  F       0.00000000       0.00000000       0.00000000
Pd       9.53154832      11.26015509       9.23997917  T       0.00000000       0.00000000       0.00000000
Pd       9.53167855       4.83780585       9.24147216  T       0.00000000       0.00000000       0.00000000
Pd       7.94267006       4.89301551      12.46281489  T       0.00000000       0.00000000       0.00000000
Pd       4.76585465       1.60596896       2.73351527  F       0.00000000       0.00000000       0.00000000
Pd       4.76520138       4.89348306      12.45627163  T       0.00000000       0.00000000       0.00000000
Pd       7.94307042      11.24177723       5.96677003  F       0.00000000       0.00000000       0.00000000
Pd       6.35446228       8.02984189       5.93125037  F       0.00000000       0.00000000       0.00000000
Pd       6.35447286      11.24178275       2.73351527  F       0.00000000       0.00000000       0.00000000
Pd       7.94309108       8.02984482       2.73351527  F       0.00000000       0.00000000       0.00000000
Pd       3.17671146       1.66285097      12.37181010  T       0.00000000       0.00000000       0.00000000
Pd       1.58781999       1.62419783       9.17363642  T       0.00000000       0.00000000       0.00000000
Pd       3.17751321      11.26170480       9.24143567  T       0.00000000       0.00000000       0.00000000
Pd       7.94333956       8.04958131       9.17582793  T       0.00000000       0.00000000       0.00000000
Pd       6.35513874      11.26025973       9.23980225  T       0.00000000       0.00000000       0.00000000
Pd       1.58861839       4.81790857       5.96677563  F       0.00000000       0.00000000       0.00000000
Pd       4.76586828       4.81790686       5.96677661  F       0.00000000       0.00000000       0.00000000
Pd       3.17721093       4.83734497       9.24077196  T       0.00000000       0.00000000       0.00000000
Pd       4.76679053       1.62434896       9.17396651  T       0.00000000       0.00000000       0.00000000
Pd       7.94285460      11.31469689      12.45914446  T       0.00000000       0.00000000       0.00000000
Pd       6.35355409       8.08636380      12.37718699  T       0.00000000       0.00000000       0.00000000
Pd       3.17725665       1.60596829       5.93125128  F       0.00000000       0.00000000       0.00000000
Pd       0.00000000       4.81790689       2.73351527  F       0.00000000       0.00000000       0.00000000
Pd       9.53168164       1.60596920       5.93125239  F       0.00000000       0.00000000       0.00000000
Pd       3.17723643       4.81790689       2.73351527  F       0.00000000       0.00000000       0.00000000
Pd       1.58885880       4.89304108      12.45774791  T       0.00000000       0.00000000       0.00000000
Pd       1.58861822       1.60596896       2.73351527  F       0.00000000       0.00000000       0.00000000
C       -1.95769477       1.45797594      15.69467365  T       0.00000000       0.00000000       0.00000000
O       -0.96741300       1.10815135      16.15410853  T       0.00000000       0.00000000       0.00000000
