146
Lattice="9.531709292017604 0.0 0.0 0.0 12.847751714415933 0.0 0.0 0.0 32.10284432209217" Properties=species:S:1:pos:R:3:move_mask:L:1:momenta:R:3 adsorbate_info="_JSON {\"site\": {\"coordinates\": [7.943084832202981, 10.574127233409747, 13.321262854959116], \"connectivity\": 3, \"topology\": [31, 53, 95], \"n_vector\": [0.01683158698487807, -0.3670457904160157, 0.9300505821822019], \"h_vector\": [-0.5788098925356483, -0.7297836899445076, -0.36386106441037347], \"site_formula\": {\"O\": 3}}, \"smiles\": \"Cl[C]=O\", \"mdf\": 2.6210626074538257, \"adsorbate_formula\": \"CO\"}" mace_E=-753.4968447736545 converged=T n_steps=32 d_min=2.814121008218018 site_type=bridge dE_rel_meV=0 original_idx=106 rank=126 E_MACE=-753.4401875335273 pbc="T T T"
O        3.18032590       4.80686104      11.21677696  T       0.00000000       0.00000000       0.00000000
O        1.59351483       0.37551260      12.68432077  T       0.00000000       0.00000000       0.00000000
O        1.59214478       2.81464661      12.68517666  T       0.00000000       0.00000000       0.00000000
O        9.53488629       4.80034975      13.70142265  T       0.00000000       0.00000000       0.00000000
O        0.00282517       4.81044563      11.21637609  T       0.00000000       0.00000000       0.00000000
O        1.58861822      10.00826748       2.73351527  F       0.00000000       0.00000000       0.00000000
O        1.58861822      12.47529802       2.73351527  F       0.00000000       0.00000000       0.00000000
O        4.76584344       2.83874884       6.08591509  F       0.00000000       0.00000000       0.00000000
O        0.00000000       8.02984482       1.50000000  F       0.00000000       0.00000000       0.00000000
O        1.58861107       6.79705424       6.08592811  F       0.00000000       0.00000000       0.00000000
O        9.53206114       1.60744249       7.94474642  T       0.00000000       0.00000000       0.00000000
O        1.58861150       9.26263623       6.08591827  F       0.00000000       0.00000000       0.00000000
O        4.76583598       0.37317881       6.08593111  F       0.00000000       0.00000000       0.00000000
O        6.35581748      11.24439324      11.21331435  T       0.00000000       0.00000000       0.00000000
O        3.17723028       4.81790423       7.22598268  F       0.00000000       0.00000000       0.00000000
O        6.35447286       1.60596896       1.50000000  F       0.00000000       0.00000000       0.00000000
O        7.94309377       2.83875127       6.08591528  F       0.00000000       0.00000000       0.00000000
O        6.35447101       4.81790868       7.22598243  F       0.00000000       0.00000000       0.00000000
O        6.35447286       4.81790689       4.71193793  F       0.00000000       0.00000000       0.00000000
O        7.94482110       3.58099292       9.25103810  T       0.00000000       0.00000000       0.00000000
O        7.94505313       6.04833739       9.26634613  T       0.00000000       0.00000000       0.00000000
O        0.00000338      11.24178289       7.22597220  F       0.00000000       0.00000000       0.00000000
O        1.59026316       6.04779442       9.26794373  T       0.00000000       0.00000000       0.00000000
O        1.59042724       3.58085460       9.25549776  T       0.00000000       0.00000000       0.00000000
O        0.00000000       4.81790689       4.71193793  F       0.00000000       0.00000000       0.00000000
O        1.59026796      12.47217045       9.25431461  T       0.00000000       0.00000000       0.00000000
O        0.00184127       8.03636307      10.41248394  T       0.00000000       0.00000000       0.00000000
O        0.00450815      11.24788867      11.21114627  T       0.00000000       0.00000000       0.00000000
O        4.76585465       6.05142216       2.73351527  F       0.00000000       0.00000000       0.00000000
O        9.53293002       8.02622314       7.94215721  T       0.00000000       0.00000000       0.00000000
O        3.17723643       1.60596896       3.96703054  F       0.00000000       0.00000000       0.00000000
O        9.53038482      11.22617256      13.69817391  T       0.00000000       0.00000000       0.00000000
O        1.59086259       9.23843872      12.67563995  T       0.00000000       0.00000000       0.00000000
O        4.76585465       3.58439162       2.73351527  F       0.00000000       0.00000000       0.00000000
O        1.59143185       6.79827732      12.67954182  T       0.00000000       0.00000000       0.00000000
O        3.17723643       1.60596896       1.50000000  F       0.00000000       0.00000000       0.00000000
O        0.00000000       8.02984482       3.96703054  F       0.00000000       0.00000000       0.00000000
O        1.59061981      10.00452566       9.25188390  T       0.00000000       0.00000000       0.00000000
O        0.00000000      11.24178275       4.71193793  F       0.00000000       0.00000000       0.00000000
O        1.58861822       3.58439162       2.73351527  F       0.00000000       0.00000000       0.00000000
O        1.58861822       6.05142216       2.73351527  F       0.00000000       0.00000000       0.00000000
O        0.00000000       1.60596896       3.96703054  F       0.00000000       0.00000000       0.00000000
O        0.00000000       1.60596896       1.50000000  F       0.00000000       0.00000000       0.00000000
O        1.58861510       0.37317604       6.08592568  F       0.00000000       0.00000000       0.00000000
O        1.58861475       2.83876150       6.08591621  F       0.00000000       0.00000000       0.00000000
O        0.00000677       4.81790638       7.22598148  F       0.00000000       0.00000000       0.00000000
O        6.35486021       1.61453280      10.41842444  T       0.00000000       0.00000000       0.00000000
O        6.35635974       1.60746326       7.94476735  T       0.00000000       0.00000000       0.00000000
O        0.00331233       1.61518503      10.41776571  T       0.00000000       0.00000000       0.00000000
O        7.94582564       2.81242674      12.68378294  T       0.00000000       0.00000000       0.00000000
O        4.76894856       0.37402558      12.68224760  T       0.00000000       0.00000000       0.00000000
O        4.76981643       2.81433351      12.68212478  T       0.00000000       0.00000000       0.00000000
O        3.18054327       4.80008309      13.70187153  T       0.00000000       0.00000000       0.00000000
O        6.36203936      11.20541184      13.69855766  T       0.00000000       0.00000000       0.00000000
O        4.76585465      10.00826748       2.73351527  F       0.00000000       0.00000000       0.00000000
O        4.76585465      12.47529802       2.73351527  F       0.00000000       0.00000000       0.00000000
O        3.17723643       8.02984482       3.96703054  F       0.00000000       0.00000000       0.00000000
O        3.17723643       8.02984482       1.50000000  F       0.00000000       0.00000000       0.00000000
O        4.76583213       9.26262741       6.08592309  F       0.00000000       0.00000000       0.00000000
O        3.17722243      11.24178386       7.22601453  F       0.00000000       0.00000000       0.00000000
O        3.17723643      11.24178275       4.71193793  F       0.00000000       0.00000000       0.00000000
O        4.76609745      10.00374844       9.25457282  T       0.00000000       0.00000000       0.00000000
O        4.76675954      12.47227663       9.25346212  T       0.00000000       0.00000000       0.00000000
O        3.17811933       8.03641872      10.41165893  T       0.00000000       0.00000000       0.00000000
O        3.17831783       8.02161057       7.94213086  T       0.00000000       0.00000000       0.00000000
O        4.76703587       6.79729522      12.67909959  T       0.00000000       0.00000000       0.00000000
O        4.76821888       9.23601836      12.67047856  T       0.00000000       0.00000000       0.00000000
O        3.17855864      11.21854761      13.70001513  T       0.00000000       0.00000000       0.00000000
O        3.17944062      11.24956205      11.21535708  T       0.00000000       0.00000000       0.00000000
O        7.94309108       3.58439162       2.73351527  F       0.00000000       0.00000000       0.00000000
O        7.94577984       0.37302674      12.67050985  T       0.00000000       0.00000000       0.00000000
O        3.17849405       1.60953600       7.94302886  T       0.00000000       0.00000000       0.00000000
O        3.17868210       1.60844681      10.41539029  T       0.00000000       0.00000000       0.00000000
O        4.76583238       6.79706024       6.08593407  F       0.00000000       0.00000000       0.00000000
O        6.35817512       4.80470138      13.70081128  T       0.00000000       0.00000000       0.00000000
O        4.76737205       6.04765883       9.26658571  T       0.00000000       0.00000000       0.00000000
O        6.35758546       4.81317852      11.21618861  T       0.00000000       0.00000000       0.00000000
O        7.94309108      10.00826748       2.73351527  F       0.00000000       0.00000000       0.00000000
O        7.94309108      12.47529802       2.73351527  F       0.00000000       0.00000000       0.00000000
O        6.35447286       8.02984482       3.96703054  F       0.00000000       0.00000000       0.00000000
O        6.35447286       8.02984482       1.50000000  F       0.00000000       0.00000000       0.00000000
O        7.94309077       6.79706319       6.08592610  F       0.00000000       0.00000000       0.00000000
O        6.35446208      11.24178289       7.22597601  F       0.00000000       0.00000000       0.00000000
O        6.35447286      11.24178275       4.71193793  F       0.00000000       0.00000000       0.00000000
O        7.94397162      10.00447906       9.25855672  T       0.00000000       0.00000000       0.00000000
O        7.94309115       9.26262662       6.08591614  F       0.00000000       0.00000000       0.00000000
O        6.35630432       8.03594410      10.41198315  T       0.00000000       0.00000000       0.00000000
O        4.76749535       3.58125923       9.25509450  T       0.00000000       0.00000000       0.00000000
O        7.94371889      12.47152985       9.26037068  T       0.00000000       0.00000000       0.00000000
O        3.17723643       4.81790689       4.71193793  F       0.00000000       0.00000000       0.00000000
O        6.35447286       1.60596896       3.96703054  F       0.00000000       0.00000000       0.00000000
O        7.94309701       0.37317906       6.08592278  F       0.00000000       0.00000000       0.00000000
O        7.94309108       6.05142216       2.73351527  F       0.00000000       0.00000000       0.00000000
O        7.94635593       6.79754120      12.67952935  T       0.00000000       0.00000000       0.00000000
O        6.35531920       8.02603132       7.94241375  T       0.00000000       0.00000000       0.00000000
O        7.94639437       9.23664092      12.67745937  T       0.00000000       0.00000000       0.00000000
Pd       4.76586017      11.24177762       5.96678586  F       0.00000000       0.00000000       0.00000000
Pd       4.76878947      11.22826513      12.46654422  T       0.00000000       0.00000000       0.00000000
Pd       3.17910833       8.01667595      12.39103354  T       0.00000000       0.00000000       0.00000000
Pd       1.59073568      11.23127936      12.46677660  T       0.00000000       0.00000000       0.00000000
Pd       3.17725104       8.02984249       5.93124939  F       0.00000000       0.00000000       0.00000000
Pd       9.53167951       8.02984246       5.93125040  F       0.00000000       0.00000000       0.00000000
Pd       7.94309108       1.60596896       2.73351527  F       0.00000000       0.00000000       0.00000000
Pd       6.35447286       4.81790689       2.73351527  F       0.00000000       0.00000000       0.00000000
Pd       1.58862042      11.24178075       5.96678264  F       0.00000000       0.00000000       0.00000000
Pd       9.53437531       8.01710111      12.39269064  T       0.00000000       0.00000000       0.00000000
Pd       6.35765079       1.59313457      12.39908516  T       0.00000000       0.00000000       0.00000000
Pd       6.35446907       1.60596427       5.93125186  F       0.00000000       0.00000000       0.00000000
Pd       0.00000000      11.24178275       2.73351527  F       0.00000000       0.00000000       0.00000000
Pd       1.58861822       8.02984482       2.73351527  F       0.00000000       0.00000000       0.00000000
Pd       7.94450318       1.60093203       9.17125911  T       0.00000000       0.00000000       0.00000000
Pd       6.35630467       4.81380032       9.22309173  T       0.00000000       0.00000000       0.00000000
Pd       3.17723643      11.24178275       2.73351527  F       0.00000000       0.00000000       0.00000000
Pd       4.76585465       8.02984482       2.73351527  F       0.00000000       0.00000000       0.00000000
Pd       9.53539130       1.59437907      12.39957509  T       0.00000000       0.00000000       0.00000000
Pd       4.76699480       8.02433019       9.16590647  T       0.00000000       0.00000000       0.00000000
Pd       1.58992151       8.02488033       9.16554561  T       0.00000000       0.00000000       0.00000000
Pd       7.94307467       4.81790887       5.96677722  F       0.00000000       0.00000000       0.00000000
Pd       9.53303627      11.23759657       9.22046896  T       0.00000000       0.00000000       0.00000000
Pd       9.53346483       4.81361703       9.22305124  T       0.00000000       0.00000000       0.00000000
Pd       7.94648035       4.80459471      12.46765616  T       0.00000000       0.00000000       0.00000000
Pd       4.76585465       1.60596896       2.73351527  F       0.00000000       0.00000000       0.00000000
Pd       4.76907839       4.80512130      12.46763344  T       0.00000000       0.00000000       0.00000000
Pd       7.94307042      11.24177723       5.96677003  F       0.00000000       0.00000000       0.00000000
Pd       6.35446228       8.02984189       5.93125037  F       0.00000000       0.00000000       0.00000000
Pd       6.35447286      11.24178275       2.73351527  F       0.00000000       0.00000000       0.00000000
Pd       7.94309108       8.02984482       2.73351527  F       0.00000000       0.00000000       0.00000000
Pd       3.18079892       1.59552719      12.39704845  T       0.00000000       0.00000000       0.00000000
Pd       1.59020348       1.60169604       9.16786656  T       0.00000000       0.00000000       0.00000000
Pd       3.17853697      11.23781165       9.22235624  T       0.00000000       0.00000000       0.00000000
Pd       7.94466119       8.02538596       9.16557533  T       0.00000000       0.00000000       0.00000000
Pd       6.35479538      11.23721403       9.22149970  T       0.00000000       0.00000000       0.00000000
Pd       1.58861839       4.81790857       5.96677563  F       0.00000000       0.00000000       0.00000000
Pd       4.76586828       4.81790686       5.96677661  F       0.00000000       0.00000000       0.00000000
Pd       3.17884166       4.81361680       9.22293887  T       0.00000000       0.00000000       0.00000000
Pd       4.76736008       1.60220240       9.16843997  T       0.00000000       0.00000000       0.00000000
Pd       7.94727233      11.22724797      12.46121702  T       0.00000000       0.00000000       0.00000000
Pd       6.35737033       8.01558287      12.39180427  T       0.00000000       0.00000000       0.00000000
Pd       3.17725665       1.60596829       5.93125128  F       0.00000000       0.00000000       0.00000000
Pd       0.00000000       4.81790689       2.73351527  F       0.00000000       0.00000000       0.00000000
Pd       9.53168164       1.60596920       5.93125239  F       0.00000000       0.00000000       0.00000000
Pd       3.17723643       4.81790689       2.73351527  F       0.00000000       0.00000000       0.00000000
Pd       1.59177844       4.80559486      12.46775322  T       0.00000000       0.00000000       0.00000000
Pd       1.58861822       1.60596896       2.73351527  F       0.00000000       0.00000000       0.00000000
C        8.07122323      12.90214809      16.11839302  T       0.00000000       0.00000000       0.00000000
O        7.28195885      13.69417645      15.86120480  T       0.00000000       0.00000000       0.00000000
