146
Lattice="9.531709292017604 0.0 0.0 0.0 12.847751714415933 0.0 0.0 0.0 32.10284432209217" Properties=species:S:1:pos:R:3:move_mask:L:1:momenta:R:3 adsorbate_info="_JSON {\"site\": {\"coordinates\": [6.354464028437316, 11.241781845718823, 13.654158669272686], \"connectivity\": 1, \"topology\": [53], \"n_vector\": [-0.017770368393689128, 0.0035686437862944695, 0.9998357259013497], \"h_vector\": [1.0, 0.0, 0.0], \"site_formula\": {\"O\": 1}}, \"smiles\": \"Cl[C]=O\", \"mdf\": 2.551650895168776, \"adsorbate_formula\": \"CO\"}" mace_E=-753.4674075201269 converged=T n_steps=24 d_min=1.1790664530703874 site_type=bridge dE_rel_meV=0 original_idx=83 rank=8 E_MACE=-756.5720983114188 pbc="T T T"
O        3.17625103       4.81674621      11.21043485  T       0.00000000       0.00000000       0.00000000
O        1.58668657       0.38433150      12.68082996  T       0.00000000       0.00000000       0.00000000
O        1.58664332       2.82470879      12.68628661  T       0.00000000       0.00000000       0.00000000
O        9.53020224       4.81715211      13.69232523  T       0.00000000       0.00000000       0.00000000
O       -0.00118722       4.81647218      11.20988398  T       0.00000000       0.00000000       0.00000000
O        1.58861822      10.00826748       2.73351527  F       0.00000000       0.00000000       0.00000000
O        1.58861822      12.47529802       2.73351527  F       0.00000000       0.00000000       0.00000000
O        4.76584344       2.83874884       6.08591509  F       0.00000000       0.00000000       0.00000000
O        0.00000000       8.02984482       1.50000000  F       0.00000000       0.00000000       0.00000000
O        1.58861107       6.79705424       6.08592811  F       0.00000000       0.00000000       0.00000000
O        9.53095446       1.60805219       7.94727030  T       0.00000000       0.00000000       0.00000000
O        1.58861150       9.26263623       6.08591827  F       0.00000000       0.00000000       0.00000000
O        4.76583598       0.37317881       6.08593111  F       0.00000000       0.00000000       0.00000000
O        6.35493223      11.24287911      11.20485885  T       0.00000000       0.00000000       0.00000000
O        3.17723028       4.81790423       7.22598268  F       0.00000000       0.00000000       0.00000000
O        6.35447286       1.60596896       1.50000000  F       0.00000000       0.00000000       0.00000000
O        7.94309377       2.83875127       6.08591528  F       0.00000000       0.00000000       0.00000000
O        6.35447101       4.81790868       7.22598243  F       0.00000000       0.00000000       0.00000000
O        6.35447286       4.81790689       4.71193793  F       0.00000000       0.00000000       0.00000000
O        7.94253838       3.58412603       9.25551806  T       0.00000000       0.00000000       0.00000000
O        7.94245025       6.05160541       9.25610721  T       0.00000000       0.00000000       0.00000000
O        0.00000338      11.24178289       7.22597220  F       0.00000000       0.00000000       0.00000000
O        1.58827046       6.05124896       9.25525145  T       0.00000000       0.00000000       0.00000000
O        1.58829499       3.58441643       9.25485085  T       0.00000000       0.00000000       0.00000000
O        0.00000000       4.81790689       4.71193793  F       0.00000000       0.00000000       0.00000000
O        1.58739398      12.47560456       9.25155562  T       0.00000000       0.00000000       0.00000000
O       -0.00125195       8.03081669      10.41944928  T       0.00000000       0.00000000       0.00000000
O       -0.00337256      11.24654549      11.20777609  T       0.00000000       0.00000000       0.00000000
O        4.76585465       6.05142216       2.73351527  F       0.00000000       0.00000000       0.00000000
O        9.53097739       8.02884427       7.94712503  T       0.00000000       0.00000000       0.00000000
O        3.17723643       1.60596896       3.96703054  F       0.00000000       0.00000000       0.00000000
O        9.52806951      11.24169977      13.69173133  T       0.00000000       0.00000000       0.00000000
O        1.58704860       9.24862653      12.68313899  T       0.00000000       0.00000000       0.00000000
O        4.76585465       3.58439162       2.73351527  F       0.00000000       0.00000000       0.00000000
O        1.58573763       6.80767922      12.68638600  T       0.00000000       0.00000000       0.00000000
O        3.17723643       1.60596896       1.50000000  F       0.00000000       0.00000000       0.00000000
O        0.00000000       8.02984482       3.96703054  F       0.00000000       0.00000000       0.00000000
O        1.58706289      10.00796360       9.25416630  T       0.00000000       0.00000000       0.00000000
O        0.00000000      11.24178275       4.71193793  F       0.00000000       0.00000000       0.00000000
O        1.58861822       3.58439162       2.73351527  F       0.00000000       0.00000000       0.00000000
O        1.58861822       6.05142216       2.73351527  F       0.00000000       0.00000000       0.00000000
O        0.00000000       1.60596896       3.96703054  F       0.00000000       0.00000000       0.00000000
O        0.00000000       1.60596896       1.50000000  F       0.00000000       0.00000000       0.00000000
O        1.58861510       0.37317604       6.08592568  F       0.00000000       0.00000000       0.00000000
O        1.58861475       2.83876150       6.08591621  F       0.00000000       0.00000000       0.00000000
O        0.00000677       4.81790638       7.22598148  F       0.00000000       0.00000000       0.00000000
O        6.35308798       1.60455863      10.41917309  T       0.00000000       0.00000000       0.00000000
O        6.35391037       1.60691737       7.94720875  T       0.00000000       0.00000000       0.00000000
O       -0.00099899       1.60661024      10.41931146  T       0.00000000       0.00000000       0.00000000
O        7.94083560       2.82424613      12.68693343  T       0.00000000       0.00000000       0.00000000
O        4.76354079       0.38435066      12.68199381  T       0.00000000       0.00000000       0.00000000
O        4.76406544       2.82493389      12.68608669  T       0.00000000       0.00000000       0.00000000
O        3.17578705       4.81715242      13.69255547  T       0.00000000       0.00000000       0.00000000
O        6.35262488      11.24077492      13.68811104  T       0.00000000       0.00000000       0.00000000
O        4.76585465      10.00826748       2.73351527  F       0.00000000       0.00000000       0.00000000
O        4.76585465      12.47529802       2.73351527  F       0.00000000       0.00000000       0.00000000
O        3.17723643       8.02984482       3.96703054  F       0.00000000       0.00000000       0.00000000
O        3.17723643       8.02984482       1.50000000  F       0.00000000       0.00000000       0.00000000
O        4.76583213       9.26262741       6.08592309  F       0.00000000       0.00000000       0.00000000
O        3.17722243      11.24178386       7.22601453  F       0.00000000       0.00000000       0.00000000
O        3.17723643      11.24178275       4.71193793  F       0.00000000       0.00000000       0.00000000
O        4.76451482      10.00815273       9.25709902  T       0.00000000       0.00000000       0.00000000
O        4.76452305      12.47524026       9.25513586  T       0.00000000       0.00000000       0.00000000
O        3.17608328       8.03009446      10.42002328  T       0.00000000       0.00000000       0.00000000
O        3.17663974       8.03258590       7.94725872  T       0.00000000       0.00000000       0.00000000
O        4.76393415       6.80686709      12.68900144  T       0.00000000       0.00000000       0.00000000
O        4.76368832       9.24901441      12.68190392  T       0.00000000       0.00000000       0.00000000
O        3.17410806      11.23839458      13.68615571  T       0.00000000       0.00000000       0.00000000
O        3.17363430      11.23884548      11.20548441  T       0.00000000       0.00000000       0.00000000
O        7.94309108       3.58439162       2.73351527  F       0.00000000       0.00000000       0.00000000
O        7.94111371       0.38406899      12.67930863  T       0.00000000       0.00000000       0.00000000
O        3.17666828       1.60483534       7.94687201  T       0.00000000       0.00000000       0.00000000
O        3.17642067       1.60629949      10.41831790  T       0.00000000       0.00000000       0.00000000
O        4.76583238       6.79706024       6.08593407  F       0.00000000       0.00000000       0.00000000
O        6.35366192       4.81720806      13.69270209  T       0.00000000       0.00000000       0.00000000
O        4.76567554       6.05133813       9.25599570  T       0.00000000       0.00000000       0.00000000
O        6.35351309       4.81750522      11.21025814  T       0.00000000       0.00000000       0.00000000
O        7.94309108      10.00826748       2.73351527  F       0.00000000       0.00000000       0.00000000
O        7.94309108      12.47529802       2.73351527  F       0.00000000       0.00000000       0.00000000
O        6.35447286       8.02984482       3.96703054  F       0.00000000       0.00000000       0.00000000
O        6.35447286       8.02984482       1.50000000  F       0.00000000       0.00000000       0.00000000
O        7.94309077       6.79706319       6.08592610  F       0.00000000       0.00000000       0.00000000
O        6.35446208      11.24178289       7.22597601  F       0.00000000       0.00000000       0.00000000
O        6.35447286      11.24178275       4.71193793  F       0.00000000       0.00000000       0.00000000
O        7.94240838      10.00840372       9.24914864  T       0.00000000       0.00000000       0.00000000
O        7.94309115       9.26262662       6.08591614  F       0.00000000       0.00000000       0.00000000
O        6.35326699       8.03437028      10.42023175  T       0.00000000       0.00000000       0.00000000
O        4.76564909       3.58422568       9.25524141  T       0.00000000       0.00000000       0.00000000
O        7.94215729      12.47517142       9.24571148  T       0.00000000       0.00000000       0.00000000
O        3.17723643       4.81790689       4.71193793  F       0.00000000       0.00000000       0.00000000
O        6.35447286       1.60596896       3.96703054  F       0.00000000       0.00000000       0.00000000
O        7.94309701       0.37317906       6.08592278  F       0.00000000       0.00000000       0.00000000
O        7.94309108       6.05142216       2.73351527  F       0.00000000       0.00000000       0.00000000
O        7.94150360       6.80791638      12.68657593  T       0.00000000       0.00000000       0.00000000
O        6.35366650       8.03041755       7.94737456  T       0.00000000       0.00000000       0.00000000
O        7.93984188       9.24859517      12.68185883  T       0.00000000       0.00000000       0.00000000
Pd       4.76586017      11.24177762       5.96678586  F       0.00000000       0.00000000       0.00000000
Pd       4.76469122      11.24159451      12.45416844  T       0.00000000       0.00000000       0.00000000
Pd       3.17542320       8.02691443      12.40037353  T       0.00000000       0.00000000       0.00000000
Pd       1.58483497      11.24120901      12.45766393  T       0.00000000       0.00000000       0.00000000
Pd       3.17725104       8.02984249       5.93124939  F       0.00000000       0.00000000       0.00000000
Pd       9.53167951       8.02984246       5.93125040  F       0.00000000       0.00000000       0.00000000
Pd       7.94309108       1.60596896       2.73351527  F       0.00000000       0.00000000       0.00000000
Pd       6.35447286       4.81790689       2.73351527  F       0.00000000       0.00000000       0.00000000
Pd       1.58862042      11.24178075       5.96678264  F       0.00000000       0.00000000       0.00000000
Pd       9.52949510       8.02847825      12.40027411  T       0.00000000       0.00000000       0.00000000
Pd       6.35168848       1.60447291      12.39971691  T       0.00000000       0.00000000       0.00000000
Pd       6.35446907       1.60596427       5.93125186  F       0.00000000       0.00000000       0.00000000
Pd       0.00000000      11.24178275       2.73351527  F       0.00000000       0.00000000       0.00000000
Pd       1.58861822       8.02984482       2.73351527  F       0.00000000       0.00000000       0.00000000
Pd       7.94221228       1.60580539       9.17240732  T       0.00000000       0.00000000       0.00000000
Pd       6.35424039       4.81764885       9.22076036  T       0.00000000       0.00000000       0.00000000
Pd       3.17723643      11.24178275       2.73351527  F       0.00000000       0.00000000       0.00000000
Pd       4.76585465       8.02984482       2.73351527  F       0.00000000       0.00000000       0.00000000
Pd       9.52961303       1.60440752      12.39973435  T       0.00000000       0.00000000       0.00000000
Pd       4.76493555       8.02925886       9.17215586  T       0.00000000       0.00000000       0.00000000
Pd       1.58765662       8.02920615       9.17206531  T       0.00000000       0.00000000       0.00000000
Pd       7.94307467       4.81790887       5.96677722  F       0.00000000       0.00000000       0.00000000
Pd       9.53065395      11.24174117       9.21893339  T       0.00000000       0.00000000       0.00000000
Pd       9.53124346       4.81778066       9.22058941  T       0.00000000       0.00000000       0.00000000
Pd       7.94190855       4.81626819      12.46007398  T       0.00000000       0.00000000       0.00000000
Pd       4.76585465       1.60596896       2.73351527  F       0.00000000       0.00000000       0.00000000
Pd       4.76473570       4.81604260      12.46043974  T       0.00000000       0.00000000       0.00000000
Pd       7.94307042      11.24177723       5.96677003  F       0.00000000       0.00000000       0.00000000
Pd       6.35446228       8.02984189       5.93125037  F       0.00000000       0.00000000       0.00000000
Pd       6.35447286      11.24178275       2.73351527  F       0.00000000       0.00000000       0.00000000
Pd       7.94309108       8.02984482       2.73351527  F       0.00000000       0.00000000       0.00000000
Pd       3.17548026       1.60497062      12.39880783  T       0.00000000       0.00000000       0.00000000
Pd       1.58776494       1.60626749       9.17172177  T       0.00000000       0.00000000       0.00000000
Pd       3.17581636      11.24163752       9.21788978  T       0.00000000       0.00000000       0.00000000
Pd       7.94214274       8.02964554       9.17237327  T       0.00000000       0.00000000       0.00000000
Pd       6.35331168      11.24155081       9.21737962  T       0.00000000       0.00000000       0.00000000
Pd       1.58861839       4.81790857       5.96677563  F       0.00000000       0.00000000       0.00000000
Pd       4.76586828       4.81790686       5.96677661  F       0.00000000       0.00000000       0.00000000
Pd       3.17703590       4.81770275       9.22100843  T       0.00000000       0.00000000       0.00000000
Pd       4.76507686       1.60602471       9.17148454  T       0.00000000       0.00000000       0.00000000
Pd       7.94088169      11.24073478      12.45809018  T       0.00000000       0.00000000       0.00000000
Pd       6.35120302       8.02660868      12.40076870  T       0.00000000       0.00000000       0.00000000
Pd       3.17725665       1.60596829       5.93125128  F       0.00000000       0.00000000       0.00000000
Pd       0.00000000       4.81790689       2.73351527  F       0.00000000       0.00000000       0.00000000
Pd       9.53168164       1.60596920       5.93125239  F       0.00000000       0.00000000       0.00000000
Pd       3.17723643       4.81790689       2.73351527  F       0.00000000       0.00000000       0.00000000
Pd       1.58703434       4.81637362      12.46002796  T       0.00000000       0.00000000       0.00000000
Pd       1.58861822       1.60596896       2.73351527  F       0.00000000       0.00000000       0.00000000
C        4.52361125      11.32414121      16.28210918  T       0.00000000       0.00000000       0.00000000
O        4.33975166      10.23893655      16.60769958  T       0.00000000       0.00000000       0.00000000
