146
Lattice="9.531709292017604 0.0 0.0 0.0 12.847751714415933 0.0 0.0 0.0 32.10284432209217" Properties=species:S:1:pos:R:3:move_mask:L:1:momenta:R:3 adsorbate_info="_JSON {\"site\": {\"coordinates\": [8.737393042808801, 5.819377309514936, 13.154824447610322], \"connectivity\": 2, \"topology\": [3, 93], \"n_vector\": [-0.02053942304518761, 0.41594123755159595, 0.9091595124096857], \"h_vector\": [0.5788198757203709, -0.7297736690542608, 0.3638652819741621], \"site_formula\": {\"O\": 2}}, \"smiles\": \"Cl[C]=O\", \"mdf\": 2.3962403298472577, \"adsorbate_formula\": \"CO\"}" mace_E=-756.5720983114188 converged=T n_steps=144 d_min=3.6727058644970554 site_type=unknown dE_rel_meV=0 original_idx=114 rank=9 E_MACE=-756.5713538331759 pbc="T T T"
O        3.13836998       4.40615565      11.16469136  T       0.00000000       0.00000000       0.00000000
O        1.58906937       0.28331540      12.54212743  T       0.00000000       0.00000000       0.00000000
O        1.58934484       2.70821842      12.77930006  T       0.00000000       0.00000000       0.00000000
O        9.53819906       4.79851945      13.66433546  T       0.00000000       0.00000000       0.00000000
O        0.03664453       4.40494631      11.16744803  T       0.00000000       0.00000000       0.00000000
O        1.58861822      10.00826748       2.73351527  F       0.00000000       0.00000000       0.00000000
O        1.58861822      12.47529802       2.73351527  F       0.00000000       0.00000000       0.00000000
O        4.76584344       2.83874884       6.08591509  F       0.00000000       0.00000000       0.00000000
O        0.00000000       8.02984482       1.50000000  F       0.00000000       0.00000000       0.00000000
O        1.58861107       6.79705424       6.08592811  F       0.00000000       0.00000000       0.00000000
O        9.53095279       1.33820298       7.94612658  T       0.00000000       0.00000000       0.00000000
O        1.58861150       9.26263623       6.08591827  F       0.00000000       0.00000000       0.00000000
O        4.76583598       0.37317881       6.08593111  F       0.00000000       0.00000000       0.00000000
O        6.35504703      10.91517987      11.20962006  T       0.00000000       0.00000000       0.00000000
O        3.17723028       4.81790423       7.22598268  F       0.00000000       0.00000000       0.00000000
O        6.35447286       1.60596896       1.50000000  F       0.00000000       0.00000000       0.00000000
O        7.94309377       2.83875127       6.08591528  F       0.00000000       0.00000000       0.00000000
O        6.35447101       4.81790868       7.22598243  F       0.00000000       0.00000000       0.00000000
O        6.35447286       4.81790689       4.71193793  F       0.00000000       0.00000000       0.00000000
O        7.93888693       3.54817515       8.92809632  T       0.00000000       0.00000000       0.00000000
O        7.94871417       6.00960838       9.54669871  T       0.00000000       0.00000000       0.00000000
O        0.00000338      11.24178289       7.22597220  F       0.00000000       0.00000000       0.00000000
O        1.58872531       6.00081558       9.52169360  T       0.00000000       0.00000000       0.00000000
O        1.58878890       3.54157343       8.88519428  T       0.00000000       0.00000000       0.00000000
O        0.00000000       4.81790689       4.71193793  F       0.00000000       0.00000000       0.00000000
O        1.58946548      12.43110700       9.53388029  T       0.00000000       0.00000000       0.00000000
O       -0.00464396       8.23214242      10.41402318  T       0.00000000       0.00000000       0.00000000
O       -0.00053987      10.90516234      11.20962553  T       0.00000000       0.00000000       0.00000000
O        4.76585465       6.05142216       2.73351527  F       0.00000000       0.00000000       0.00000000
O        9.53318165       7.77039618       7.95153178  T       0.00000000       0.00000000       0.00000000
O        3.17723643       1.60596896       3.96703054  F       0.00000000       0.00000000       0.00000000
O        9.53115406      11.25143863      13.68671200  T       0.00000000       0.00000000       0.00000000
O        1.58855666       9.14273815      12.76946954  T       0.00000000       0.00000000       0.00000000
O        4.76585465       3.58439162       2.73351527  F       0.00000000       0.00000000       0.00000000
O        1.58841402       6.70245386      12.52295005  T       0.00000000       0.00000000       0.00000000
O        3.17723643       1.60596896       1.50000000  F       0.00000000       0.00000000       0.00000000
O        0.00000000       8.02984482       3.96703054  F       0.00000000       0.00000000       0.00000000
O        1.58835874       9.96985732       8.93937187  T       0.00000000       0.00000000       0.00000000
O        0.00000000      11.24178275       4.71193793  F       0.00000000       0.00000000       0.00000000
O        1.58861822       3.58439162       2.73351527  F       0.00000000       0.00000000       0.00000000
O        1.58861822       6.05142216       2.73351527  F       0.00000000       0.00000000       0.00000000
O        0.00000000       1.60596896       3.96703054  F       0.00000000       0.00000000       0.00000000
O        0.00000000       1.60596896       1.50000000  F       0.00000000       0.00000000       0.00000000
O        1.58861510       0.37317604       6.08592568  F       0.00000000       0.00000000       0.00000000
O        1.58861475       2.83876150       6.08591621  F       0.00000000       0.00000000       0.00000000
O        0.00000677       4.81790638       7.22598148  F       0.00000000       0.00000000       0.00000000
O        6.35577605       1.86059917      10.39931108  T       0.00000000       0.00000000       0.00000000
O        6.35538330       1.33637147       7.94529383  T       0.00000000       0.00000000       0.00000000
O        0.00347399       1.80453616      10.40044720  T       0.00000000       0.00000000       0.00000000
O        7.93128725       2.72937908      12.77205964  T       0.00000000       0.00000000       0.00000000
O        4.77096696       0.28063198      12.53296365  T       0.00000000       0.00000000       0.00000000
O        4.77752361       2.72930712      12.77296988  T       0.00000000       0.00000000       0.00000000
O        3.17432615       4.80604137      13.65950500  T       0.00000000       0.00000000       0.00000000
O        6.35388703      11.25198837      13.68432764  T       0.00000000       0.00000000       0.00000000
O        4.76585465      10.00826748       2.73351527  F       0.00000000       0.00000000       0.00000000
O        4.76585465      12.47529802       2.73351527  F       0.00000000       0.00000000       0.00000000
O        3.17723643       8.02984482       3.96703054  F       0.00000000       0.00000000       0.00000000
O        3.17723643       8.02984482       1.50000000  F       0.00000000       0.00000000       0.00000000
O        4.76583213       9.26262741       6.08592309  F       0.00000000       0.00000000       0.00000000
O        3.17722243      11.24178386       7.22601453  F       0.00000000       0.00000000       0.00000000
O        3.17723643      11.24178275       4.71193793  F       0.00000000       0.00000000       0.00000000
O        4.76630520       9.97217391       8.93131921  T       0.00000000       0.00000000       0.00000000
O        4.76897268      12.43431575       9.53495701  T       0.00000000       0.00000000       0.00000000
O        3.18202680       8.23333347      10.41065623  T       0.00000000       0.00000000       0.00000000
O        3.17504260       7.76993985       7.95149787  T       0.00000000       0.00000000       0.00000000
O        4.78574396       6.69789343      12.60178627  T       0.00000000       0.00000000       0.00000000
O        4.76719255       9.15002376      12.77596667  T       0.00000000       0.00000000       0.00000000
O        3.17621852      11.25362624      13.68429531  T       0.00000000       0.00000000       0.00000000
O        3.17666679      10.90624589      11.20938234  T       0.00000000       0.00000000       0.00000000
O        7.94309108       3.58439162       2.73351527  F       0.00000000       0.00000000       0.00000000
O        7.93746350       0.28116353      12.53264932  T       0.00000000       0.00000000       0.00000000
O        3.18087215       1.33867203       7.94652608  T       0.00000000       0.00000000       0.00000000
O        3.17704289       1.80485741      10.40158008  T       0.00000000       0.00000000       0.00000000
O        4.76583238       6.79706024       6.08593407  F       0.00000000       0.00000000       0.00000000
O        6.37946588       5.13416490      15.23798289  T       0.00000000       0.00000000       0.00000000
O        4.76105080       6.00861175       9.54368403  T       0.00000000       0.00000000       0.00000000
O        6.35662381       4.61730433      11.28913103  T       0.00000000       0.00000000       0.00000000
O        7.94309108      10.00826748       2.73351527  F       0.00000000       0.00000000       0.00000000
O        7.94309108      12.47529802       2.73351527  F       0.00000000       0.00000000       0.00000000
O        6.35447286       8.02984482       3.96703054  F       0.00000000       0.00000000       0.00000000
O        6.35447286       8.02984482       1.50000000  F       0.00000000       0.00000000       0.00000000
O        7.94309077       6.79706319       6.08592610  F       0.00000000       0.00000000       0.00000000
O        6.35446208      11.24178289       7.22597601  F       0.00000000       0.00000000       0.00000000
O        6.35447286      11.24178275       4.71193793  F       0.00000000       0.00000000       0.00000000
O        7.94402428       9.97245146       8.93077076  T       0.00000000       0.00000000       0.00000000
O        7.94309115       9.26262662       6.08591614  F       0.00000000       0.00000000       0.00000000
O        6.35399991       8.23423884      10.40243562  T       0.00000000       0.00000000       0.00000000
O        4.77204418       3.54799463       8.92948113  T       0.00000000       0.00000000       0.00000000
O        7.94152477      12.43493757       9.53429036  T       0.00000000       0.00000000       0.00000000
O        3.17723643       4.81790689       4.71193793  F       0.00000000       0.00000000       0.00000000
O        6.35447286       1.60596896       3.96703054  F       0.00000000       0.00000000       0.00000000
O        7.94309701       0.37317906       6.08592278  F       0.00000000       0.00000000       0.00000000
O        7.94309108       6.05142216       2.73351527  F       0.00000000       0.00000000       0.00000000
O        7.92448920       6.69858355      12.61375828  T       0.00000000       0.00000000       0.00000000
O        6.35526893       7.76316673       7.94840716  T       0.00000000       0.00000000       0.00000000
O        7.94208353       9.15110377      12.78037502  T       0.00000000       0.00000000       0.00000000
Pd       4.76586017      11.24177762       5.96678586  F       0.00000000       0.00000000       0.00000000
Pd       4.76416846      11.13470715      12.45535620  T       0.00000000       0.00000000       0.00000000
Pd       3.18371583       7.94301353      12.39217084  T       0.00000000       0.00000000       0.00000000
Pd       1.58764943      11.13339226      12.45653799  T       0.00000000       0.00000000       0.00000000
Pd       3.17725104       8.02984249       5.93124939  F       0.00000000       0.00000000       0.00000000
Pd       9.53167951       8.02984246       5.93125040  F       0.00000000       0.00000000       0.00000000
Pd       7.94309108       1.60596896       2.73351527  F       0.00000000       0.00000000       0.00000000
Pd       6.35447286       4.81790689       2.73351527  F       0.00000000       0.00000000       0.00000000
Pd       1.58862042      11.24178075       5.96678264  F       0.00000000       0.00000000       0.00000000
Pd       9.52390434       7.94362093      12.39685145  T       0.00000000       0.00000000       0.00000000
Pd       6.35407312       1.50241495      12.36657223  T       0.00000000       0.00000000       0.00000000
Pd       6.35446907       1.60596427       5.93125186  F       0.00000000       0.00000000       0.00000000
Pd       0.00000000      11.24178275       2.73351527  F       0.00000000       0.00000000       0.00000000
Pd       1.58861822       8.02984482       2.73351527  F       0.00000000       0.00000000       0.00000000
Pd       7.94128087       1.56213270       9.16976676  T       0.00000000       0.00000000       0.00000000
Pd       6.35555293       4.77356248       9.25382689  T       0.00000000       0.00000000       0.00000000
Pd       3.17723643      11.24178275       2.73351527  F       0.00000000       0.00000000       0.00000000
Pd       4.76585465       8.02984482       2.73351527  F       0.00000000       0.00000000       0.00000000
Pd       9.52849104       1.50904224      12.37725160  T       0.00000000       0.00000000       0.00000000
Pd       4.76588770       7.98498789       9.17392144  T       0.00000000       0.00000000       0.00000000
Pd       1.58804279       7.98359083       9.18063868  T       0.00000000       0.00000000       0.00000000
Pd       7.94307467       4.81790887       5.96677722  F       0.00000000       0.00000000       0.00000000
Pd       9.53160998      11.19624822       9.23892867  T       0.00000000       0.00000000       0.00000000
Pd       9.53443863       4.76842108       9.22008269  T       0.00000000       0.00000000       0.00000000
Pd       7.99432914       4.71024385      12.43545820  T       0.00000000       0.00000000       0.00000000
Pd       4.76585465       1.60596896       2.73351527  F       0.00000000       0.00000000       0.00000000
Pd       4.71631695       4.71248207      12.43028811  T       0.00000000       0.00000000       0.00000000
Pd       7.94307042      11.24177723       5.96677003  F       0.00000000       0.00000000       0.00000000
Pd       6.35446228       8.02984189       5.93125037  F       0.00000000       0.00000000       0.00000000
Pd       6.35447286      11.24178275       2.73351527  F       0.00000000       0.00000000       0.00000000
Pd       7.94309108       8.02984482       2.73351527  F       0.00000000       0.00000000       0.00000000
Pd       3.18136338       1.50938509      12.37858270  T       0.00000000       0.00000000       0.00000000
Pd       1.59029877       1.55713335       9.16745039  T       0.00000000       0.00000000       0.00000000
Pd       3.17807092      11.19576083       9.23876188  T       0.00000000       0.00000000       0.00000000
Pd       7.94364269       7.98571822       9.17498378  T       0.00000000       0.00000000       0.00000000
Pd       6.35510624      11.19570462       9.23704818  T       0.00000000       0.00000000       0.00000000
Pd       1.58861839       4.81790857       5.96677563  F       0.00000000       0.00000000       0.00000000
Pd       4.76586828       4.81790686       5.96677661  F       0.00000000       0.00000000       0.00000000
Pd       3.17467308       4.76820615       9.21862425  T       0.00000000       0.00000000       0.00000000
Pd       4.77047071       1.56177801       9.17062578  T       0.00000000       0.00000000       0.00000000
Pd       7.94432996      11.13554964      12.45647814  T       0.00000000       0.00000000       0.00000000
Pd       6.35478534       7.95611270      12.38709081  T       0.00000000       0.00000000       0.00000000
Pd       3.17725665       1.60596829       5.93125128  F       0.00000000       0.00000000       0.00000000
Pd       0.00000000       4.81790689       2.73351527  F       0.00000000       0.00000000       0.00000000
Pd       9.53168164       1.60596920       5.93125239  F       0.00000000       0.00000000       0.00000000
Pd       3.17723643       4.81790689       2.73351527  F       0.00000000       0.00000000       0.00000000
Pd       1.58834033       4.69708921      12.44100482  T       0.00000000       0.00000000       0.00000000
Pd       1.58861822       1.60596896       2.73351527  F       0.00000000       0.00000000       0.00000000
C        6.29182735       6.22741850      15.67078049  T       0.00000000       0.00000000       0.00000000
O        6.20460490       7.32294972      16.09277734  T       0.00000000       0.00000000       0.00000000
