146
Lattice="9.531709292017604 0.0 0.0 0.0 12.847751714415933 0.0 0.0 0.0 32.10284432209217" Properties=species:S:1:pos:R:3:move_mask:L:1:momenta:R:3 adsorbate_info="_JSON {\"site\": {\"coordinates\": [4.236311346408543, 1.6059663738635344, 12.55259709880908], \"connectivity\": 3, \"topology\": [50, 51, 127], \"n_vector\": [0.01576050279705789, -0.003787615296366995, 0.9998686216308375], \"h_vector\": [5.307860429835415e-06, -0.9999999999688194, 5.847037496477012e-06], \"site_formula\": {\"O\": 2, \"Pd\": 1}}, \"smiles\": \"Cl[C]=O\", \"mdf\": 2.0570538425597493, \"adsorbate_formula\": \"CO\"}" mace_E=-754.0314263636379 converged=T n_steps=150 d_min=1.1787466669118165 site_type=hollow dE_rel_meV=0 original_idx=53 rank=7 E_MACE=-756.5737715782167 pbc="T T T"
O        3.19316512       4.46296950      11.20120899  T       0.00000000       0.00000000       0.00000000
O        1.60671178       0.25399616      12.53912846  T       0.00000000       0.00000000       0.00000000
O        1.60711183       2.68783365      12.76251712  T       0.00000000       0.00000000       0.00000000
O        9.55065820       4.78303181      13.67978204  T       0.00000000       0.00000000       0.00000000
O        0.01693289       4.45494580      11.20295393  T       0.00000000       0.00000000       0.00000000
O        1.58861822      10.00826748       2.73351527  F       0.00000000       0.00000000       0.00000000
O        1.58861822      12.47529802       2.73351527  F       0.00000000       0.00000000       0.00000000
O        4.76584344       2.83874884       6.08591509  F       0.00000000       0.00000000       0.00000000
O        0.00000000       8.02984482       1.50000000  F       0.00000000       0.00000000       0.00000000
O        1.58861107       6.79705424       6.08592811  F       0.00000000       0.00000000       0.00000000
O        9.53820669       1.33047447       7.94138495  T       0.00000000       0.00000000       0.00000000
O        1.58861150       9.26263623       6.08591827  F       0.00000000       0.00000000       0.00000000
O        4.76583598       0.37317881       6.08593111  F       0.00000000       0.00000000       0.00000000
O        6.37042855      10.87469301      11.20583287  T       0.00000000       0.00000000       0.00000000
O        3.17723028       4.81790423       7.22598268  F       0.00000000       0.00000000       0.00000000
O        6.35447286       1.60596896       1.50000000  F       0.00000000       0.00000000       0.00000000
O        7.94309377       2.83875127       6.08591528  F       0.00000000       0.00000000       0.00000000
O        6.35447101       4.81790868       7.22598243  F       0.00000000       0.00000000       0.00000000
O        6.35447286       4.81790689       4.71193793  F       0.00000000       0.00000000       0.00000000
O        7.95307997       3.52992032       8.92191712  T       0.00000000       0.00000000       0.00000000
O        7.95329903       5.99035947       9.53428795  T       0.00000000       0.00000000       0.00000000
O        0.00000338      11.24178289       7.22597220  F       0.00000000       0.00000000       0.00000000
O        1.59752683       5.98843053       9.53125575  T       0.00000000       0.00000000       0.00000000
O        1.59875188       3.52881210       8.92485219  T       0.00000000       0.00000000       0.00000000
O        0.00000000       4.81790689       4.71193793  F       0.00000000       0.00000000       0.00000000
O        1.59602787      12.41551912       9.53177058  T       0.00000000       0.00000000       0.00000000
O        0.00867790       8.21763499      10.40164671  T       0.00000000       0.00000000       0.00000000
O        0.01583287      10.87871697      11.20811056  T       0.00000000       0.00000000       0.00000000
O        4.76585465       6.05142216       2.73351527  F       0.00000000       0.00000000       0.00000000
O        9.53721345       7.75569814       7.94609661  T       0.00000000       0.00000000       0.00000000
O        3.17723643       1.60596896       3.96703054  F       0.00000000       0.00000000       0.00000000
O        9.54962718      11.22457480      13.68465748  T       0.00000000       0.00000000       0.00000000
O        1.60511051       9.11174990      12.77686408  T       0.00000000       0.00000000       0.00000000
O        4.76585465       3.58439162       2.73351527  F       0.00000000       0.00000000       0.00000000
O        1.60688436       6.67722754      12.54115859  T       0.00000000       0.00000000       0.00000000
O        3.17723643       1.60596896       1.50000000  F       0.00000000       0.00000000       0.00000000
O        0.00000000       8.02984482       3.96703054  F       0.00000000       0.00000000       0.00000000
O        1.59416709       9.95222978       8.92760224  T       0.00000000       0.00000000       0.00000000
O        0.00000000      11.24178275       4.71193793  F       0.00000000       0.00000000       0.00000000
O        1.58861822       3.58439162       2.73351527  F       0.00000000       0.00000000       0.00000000
O        1.58861822       6.05142216       2.73351527  F       0.00000000       0.00000000       0.00000000
O        0.00000000       1.60596896       3.96703054  F       0.00000000       0.00000000       0.00000000
O        0.00000000       1.60596896       1.50000000  F       0.00000000       0.00000000       0.00000000
O        1.58861510       0.37317604       6.08592568  F       0.00000000       0.00000000       0.00000000
O        1.58861475       2.83876150       6.08591621  F       0.00000000       0.00000000       0.00000000
O        0.00000677       4.81790638       7.22598148  F       0.00000000       0.00000000       0.00000000
O        6.36487485       1.80572039      10.39863549  T       0.00000000       0.00000000       0.00000000
O        6.35820199       1.33173073       7.94545343  T       0.00000000       0.00000000       0.00000000
O        0.00842225       1.79724880      10.39437244  T       0.00000000       0.00000000       0.00000000
O        7.96229403       2.68865236      12.76185625  T       0.00000000       0.00000000       0.00000000
O        4.78588198       0.25259846      12.52182564  T       0.00000000       0.00000000       0.00000000
O        4.78895832       2.68901239      12.75062234  T       0.00000000       0.00000000       0.00000000
O        3.20060703       4.79048096      13.67417201  T       0.00000000       0.00000000       0.00000000
O        6.37164577      11.22363667      13.67818004  T       0.00000000       0.00000000       0.00000000
O        4.76585465      10.00826748       2.73351527  F       0.00000000       0.00000000       0.00000000
O        4.76585465      12.47529802       2.73351527  F       0.00000000       0.00000000       0.00000000
O        3.17723643       8.02984482       3.96703054  F       0.00000000       0.00000000       0.00000000
O        3.17723643       8.02984482       1.50000000  F       0.00000000       0.00000000       0.00000000
O        4.76583213       9.26262741       6.08592309  F       0.00000000       0.00000000       0.00000000
O        3.17722243      11.24178386       7.22601453  F       0.00000000       0.00000000       0.00000000
O        3.17723643      11.24178275       4.71193793  F       0.00000000       0.00000000       0.00000000
O        4.77201598       9.95144026       8.92726731  T       0.00000000       0.00000000       0.00000000
O        4.77313447      12.41250795       9.52670402  T       0.00000000       0.00000000       0.00000000
O        3.18897380       8.21682399      10.40220657  T       0.00000000       0.00000000       0.00000000
O        3.18365489       7.75787567       7.94588046  T       0.00000000       0.00000000       0.00000000
O        4.78278479       6.68061292      12.53505302  T       0.00000000       0.00000000       0.00000000
O        4.78511664       9.11647563      12.77331744  T       0.00000000       0.00000000       0.00000000
O        3.19718773      11.22301673      13.68091649  T       0.00000000       0.00000000       0.00000000
O        3.19057584      10.87995217      11.20773984  T       0.00000000       0.00000000       0.00000000
O        7.94309108       3.58439162       2.73351527  F       0.00000000       0.00000000       0.00000000
O        7.96337794       0.25239645      12.53119452  T       0.00000000       0.00000000       0.00000000
O        3.18544870       1.32802404       7.94631269  T       0.00000000       0.00000000       0.00000000
O        3.18788808       1.80848808      10.39942061  T       0.00000000       0.00000000       0.00000000
O        4.76583238       6.79706024       6.08593407  F       0.00000000       0.00000000       0.00000000
O        6.36950451       4.79954501      13.67362991  T       0.00000000       0.00000000       0.00000000
O        4.77602812       5.99020358       9.52719941  T       0.00000000       0.00000000       0.00000000
O        6.37211108       4.46356265      11.19857536  T       0.00000000       0.00000000       0.00000000
O        7.94309108      10.00826748       2.73351527  F       0.00000000       0.00000000       0.00000000
O        7.94309108      12.47529802       2.73351527  F       0.00000000       0.00000000       0.00000000
O        6.35447286       8.02984482       3.96703054  F       0.00000000       0.00000000       0.00000000
O        6.35447286       8.02984482       1.50000000  F       0.00000000       0.00000000       0.00000000
O        7.94309077       6.79706319       6.08592610  F       0.00000000       0.00000000       0.00000000
O        6.35446208      11.24178289       7.22597601  F       0.00000000       0.00000000       0.00000000
O        6.35447286      11.24178275       4.71193793  F       0.00000000       0.00000000       0.00000000
O        7.95069886       9.95272696       8.92928389  T       0.00000000       0.00000000       0.00000000
O        7.94309115       9.26262662       6.08591614  F       0.00000000       0.00000000       0.00000000
O        6.36243938       8.21703827      10.40293541  T       0.00000000       0.00000000       0.00000000
O        4.77413818       3.53175903       8.92715950  T       0.00000000       0.00000000       0.00000000
O        7.94897380      12.41323182       9.52984234  T       0.00000000       0.00000000       0.00000000
O        3.17723643       4.81790689       4.71193793  F       0.00000000       0.00000000       0.00000000
O        6.35447286       1.60596896       3.96703054  F       0.00000000       0.00000000       0.00000000
O        7.94309701       0.37317906       6.08592278  F       0.00000000       0.00000000       0.00000000
O        7.94309108       6.05142216       2.73351527  F       0.00000000       0.00000000       0.00000000
O        7.96337397       6.67815049      12.53275823  T       0.00000000       0.00000000       0.00000000
O        6.36075072       7.75945416       7.94473850  T       0.00000000       0.00000000       0.00000000
O        7.96155088       9.11228699      12.77300586  T       0.00000000       0.00000000       0.00000000
Pd       4.76586017      11.24177762       5.96678586  F       0.00000000       0.00000000       0.00000000
Pd       4.78352395      11.10317579      12.45198081  T       0.00000000       0.00000000       0.00000000
Pd       3.19500745       7.91073032      12.37473402  T       0.00000000       0.00000000       0.00000000
Pd       1.60536722      11.10250245      12.45670276  T       0.00000000       0.00000000       0.00000000
Pd       3.17725104       8.02984249       5.93124939  F       0.00000000       0.00000000       0.00000000
Pd       9.53167951       8.02984246       5.93125040  F       0.00000000       0.00000000       0.00000000
Pd       7.94309108       1.60596896       2.73351527  F       0.00000000       0.00000000       0.00000000
Pd       6.35447286       4.81790689       2.73351527  F       0.00000000       0.00000000       0.00000000
Pd       1.58862042      11.24178075       5.96678264  F       0.00000000       0.00000000       0.00000000
Pd       9.55097344       7.90715973      12.37189024  T       0.00000000       0.00000000       0.00000000
Pd       6.37738007       1.48169985      12.36181861  T       0.00000000       0.00000000       0.00000000
Pd       6.35446907       1.60596427       5.93125186  F       0.00000000       0.00000000       0.00000000
Pd       0.00000000      11.24178275       2.73351527  F       0.00000000       0.00000000       0.00000000
Pd       1.58861822       8.02984482       2.73351527  F       0.00000000       0.00000000       0.00000000
Pd       7.95035292       1.54269892       9.16638756  T       0.00000000       0.00000000       0.00000000
Pd       6.36454076       4.75473138       9.23098128  T       0.00000000       0.00000000       0.00000000
Pd       3.17723643      11.24178275       2.73351527  F       0.00000000       0.00000000       0.00000000
Pd       4.76585465       8.02984482       2.73351527  F       0.00000000       0.00000000       0.00000000
Pd       9.55052225       1.48494030      12.36647848  T       0.00000000       0.00000000       0.00000000
Pd       4.77397247       7.96522581       9.17066910  T       0.00000000       0.00000000       0.00000000
Pd       1.59687438       7.96567982       9.17193542  T       0.00000000       0.00000000       0.00000000
Pd       7.94307467       4.81790887       5.96677722  F       0.00000000       0.00000000       0.00000000
Pd       9.53868825      11.17724855       9.23790881  T       0.00000000       0.00000000       0.00000000
Pd       9.54137433       4.75173860       9.23286624  T       0.00000000       0.00000000       0.00000000
Pd       7.96264228       4.67591779      12.44963097  T       0.00000000       0.00000000       0.00000000
Pd       4.76585465       1.60596896       2.73351527  F       0.00000000       0.00000000       0.00000000
Pd       4.78540106       4.68143385      12.44642877  T       0.00000000       0.00000000       0.00000000
Pd       7.94307042      11.24177723       5.96677003  F       0.00000000       0.00000000       0.00000000
Pd       6.35446228       8.02984189       5.93125037  F       0.00000000       0.00000000       0.00000000
Pd       6.35447286      11.24178275       2.73351527  F       0.00000000       0.00000000       0.00000000
Pd       7.94309108       8.02984482       2.73351527  F       0.00000000       0.00000000       0.00000000
Pd       3.19694244       1.48077729      12.36562344  T       0.00000000       0.00000000       0.00000000
Pd       1.59778965       1.54413151       9.16751019  T       0.00000000       0.00000000       0.00000000
Pd       3.18295174      11.17571095       9.23736248  T       0.00000000       0.00000000       0.00000000
Pd       7.95052432       7.96554968       9.17180779  T       0.00000000       0.00000000       0.00000000
Pd       6.36146869      11.17328198       9.23700519  T       0.00000000       0.00000000       0.00000000
Pd       1.58861839       4.81790857       5.96677563  F       0.00000000       0.00000000       0.00000000
Pd       4.76586828       4.81790686       5.96677661  F       0.00000000       0.00000000       0.00000000
Pd       3.18632802       4.75412281       9.23495507  T       0.00000000       0.00000000       0.00000000
Pd       4.77367617       1.54403411       9.17192358  T       0.00000000       0.00000000       0.00000000
Pd       7.96103915      11.10179190      12.45484575  T       0.00000000       0.00000000       0.00000000
Pd       6.37353355       7.90968479      12.37260425  T       0.00000000       0.00000000       0.00000000
Pd       3.17725665       1.60596829       5.93125128  F       0.00000000       0.00000000       0.00000000
Pd       0.00000000       4.81790689       2.73351527  F       0.00000000       0.00000000       0.00000000
Pd       9.53168164       1.60596920       5.93125239  F       0.00000000       0.00000000       0.00000000
Pd       3.17723643       4.81790689       2.73351527  F       0.00000000       0.00000000       0.00000000
Pd       1.60543727       4.67611827      12.44967344  T       0.00000000       0.00000000       0.00000000
Pd       1.58861822       1.60596896       2.73351527  F       0.00000000       0.00000000       0.00000000
C        5.56920802       2.52763421      15.74447943  T       0.00000000       0.00000000       0.00000000
O        4.65361693       3.07320276      16.16981515  T       0.00000000       0.00000000       0.00000000
