       N       E                     dE             d eps       ncg     rms          rms(c)
DAV:   1     0.469190609834E+03    0.46919E+03   -0.27913E+04 11792   0.178E+03
DAV:   2    -0.545179354669E+00   -0.46974E+03   -0.45476E+03 12848   0.503E+02
DAV:   3    -0.240740110169E+02   -0.23529E+02   -0.23216E+02 12968   0.115E+02
DAV:   4    -0.243588277314E+02   -0.28482E+00   -0.28460E+00 12776   0.137E+01
DAV:   5    -0.243617030616E+02   -0.28753E-02   -0.28751E-02 12984   0.142E+00    0.176E+01
DAV:   6    -0.227357512337E+02    0.16260E+01   -0.15552E+01 12316   0.356E+01    0.713E+00
DAV:   7    -0.221831069525E+02    0.55264E+00   -0.25202E+00 12260   0.172E+01    0.367E+00
DAV:   8    -0.222027212684E+02   -0.19614E-01   -0.41927E-01 12496   0.413E+00    0.147E+00
DAV:   9    -0.221984150269E+02    0.43062E-02   -0.23673E-02 12828   0.139E+00    0.445E-01
DAV:  10    -0.221998033133E+02   -0.13883E-02   -0.25737E-03 12476   0.419E-01    0.181E-01
DAV:  11    -0.221999858053E+02   -0.18249E-03   -0.34606E-04 12884   0.125E-01    0.863E-02
DAV:  12    -0.221999959579E+02   -0.10153E-04   -0.53542E-05 12648   0.524E-02    0.202E-02
DAV:  13    -0.222000056871E+02   -0.97292E-05   -0.12054E-05 12496   0.248E-02    0.845E-03
DAV:  14    -0.222000071118E+02   -0.14247E-05   -0.17344E-06  9004   0.103E-02    0.330E-03
DAV:  15    -0.222000073315E+02   -0.21971E-06   -0.58269E-07  7476   0.588E-03
   1 F= -.23443731E+02 E0= -.23443013E+02  d E =-.143686E-02  mag=    -0.0000
