 vasp.6.4.3 19Mar24 (build Nov 27 2025 15:18:09) complex                         
 executed on              LinuxNV date 2026.06.04  16:42:42
 running    4 mpi-ranks, with    1 threads/rank, on    1 nodes
 distrk:  each k-point on    4 cores,    1 groups
 distr:  one band on NCORE=   1 cores,    4 groups
 OpenACC runtime initialized ...    0 GPUs detected


--------------------------------------------------------------------------------------------------------


 INCAR:
   SYSTEM = pddmc
   ENCUT = 520
   PREC = Accurate
   LASPH = .TRUE.
   ADDGRID = .TRUE.
   ISPIN = 2
   IVDW = 12
   EDIFF = 1e-06
   NELM = 200
   NELMIN = 5
   ALGO = Normal
   NCORE = 1
   LREAL = .FALSE.
   LWAVE = .FALSE.
   LCHARG = .FALSE.
   LORBIT = 11
   ISYM = 2
   IBRION = -1
   NSW = 0
   ISIF = 0
   ISMEAR = 0
   SIGMA = 0.05
   EDIFFG = -0.01

 POTCAR:    PAW_PBE Pd_pv 28Jan2005               
 POTCAR:    PAW_PBE O 08Apr2002                   
 -----------------------------------------------------------------------------
|                                                                             |
|           W    W    AA    RRRRR   N    N  II  N    N   GGGG   !!!           |
|           W    W   A  A   R    R  NN   N  II  NN   N  G    G  !!!           |
|           W    W  A    A  R    R  N N  N  II  N N  N  G       !!!           |
|           W WW W  AAAAAA  RRRRR   N  N N  II  N  N N  G  GGG   !            |
|           WW  WW  A    A  R   R   N   NN  II  N   NN  G    G                |
|           W    W  A    A  R    R  N    N  II  N    N   GGGG   !!!           |
|                                                                             |
|     You use a magnetic or noncollinear calculation, but did not specify     |
|     the initial magnetic moment with the MAGMOM tag. Note that a            |
|     default of 1 will be used for all atoms. This ferromagnetic setup       |
|     may break the symmetry of the crystal, in particular it may rule        |
|     out finding an antiferromagnetic solution. Thence, we recommend         |
|     setting the initial magnetic moment manually or verifying carefully     |
|     that this magnetic setup is desired.                                    |
|                                                                             |
 -----------------------------------------------------------------------------

 POTCAR:    PAW_PBE Pd_pv 28Jan2005               
   SHA256 =  3ce661545bbde58da9a95410dea32907db2844916708bcd35bbe03ee66324d7f Pd_pv/POTCAR          
   COPYR  = (c) Copyright 28Jan2005 Georg Kresse                                                    
   COPYR  = This file is part of the software VASP. Any use, copying, and all other rights are regul
   COPYR  = If you do not have a valid VASP license, you may not use, copy or distribute this file. 
   VRHFIN =Pd: 4p5s4d                                                                               
   LEXCH  = PE                                                                                      
   EATOM  =  2621.5550 eV,  192.6789 Ry                                                             
                                                                                                    
   TITEL  = PAW_PBE Pd_pv 28Jan2005                                                                 
   LULTRA =        F    use ultrasoft PP ?                                                          
   IUNSCR =        1    unscreen: 0-lin 1-nonlin 2-no                                               
   RPACOR =    2.250    partial core radius                                                         
   POMASS =  106.420; ZVAL   =   16.000    mass and valenz                                          
   RCORE  =    2.400    outmost cutoff radius                                                       
   RWIGS  =    2.300; RWIGS  =    1.217    wigner-seitz radius (au A)                               
   ENMAX  =  250.925; ENMIN  =  188.194 eV                                                          
   ICORE  =        3    local potential                                                             
   LCOR   =        T    correct aug charges                                                         
   LPAW   =        T    paw PP                                                                      
   EAUG   =  473.067                                                                                
   DEXC   =    0.000                                                                                
   RMAX   =    2.449    core radius for proj-oper                                                   
   RAUG   =    1.300    factor for augmentation sphere                                              
   RDEP   =    2.405    radius for radial grids                                                     
   RDEPT  =    1.966    core radius for aug-charge                                                  
                                                                                                    
   Atomic configuration                                                                             
   11 entries                                                                                       
     n  l   j            E        occ.                                                              
     1  0  0.50    -24164.6632   2.0000                                                             
     2  0  0.50     -3530.9218   2.0000                                                             
     2  1  1.50     -3165.6822   6.0000                                                             
     3  0  0.50      -639.4578   2.0000                                                             
     3  1  1.50      -519.4532   6.0000                                                             
     3  2  2.50      -328.9758  10.0000                                                             
     4  0  0.50       -88.7014   2.0000                                                             
     4  1  1.50       -54.4541   6.0000                                                             
     4  2  2.50        -6.6878   9.0000                                                             
     5  0  0.50        -4.3543   1.0000                                                             
     4  3  2.50        -1.3606   0.0000                                                             
   Description                                                                                      
     l       E           TYP  RCUT    TYP  RCUT                                                     
     1    -54.4540524     23  2.100                                                                 
     1      4.0817478     23  2.100                                                                 
     2     -6.6878326     23  2.400                                                                 
     2     -4.0817478     23  2.400                                                                 
     0     -4.3542962     23  2.400                                                                 
     0     13.6058260     23  2.400                                                                 
     3     -5.4423304     23  2.400                                                                 
  local pseudopotential read in
  partial core-charges read in
  partial kinetic energy density read in
  atomic valenz-charges read in
  non local Contribution for L=            1  read in
    real space projection operators read in
  non local Contribution for L=            1  read in
    real space projection operators read in
  non local Contribution for L=            2  read in
    real space projection operators read in
  non local Contribution for L=            2  read in
    real space projection operators read in
  non local Contribution for L=            0  read in
    real space projection operators read in
  non local Contribution for L=            0  read in
    real space projection operators read in
    PAW grid and wavefunctions read in
 
   number of l-projection  operators is LMAX  =            6
   number of lm-projection operators is LMMAX =           18
 
 POTCAR:    PAW_PBE O 08Apr2002                   
   SHA256 =  818f92134a0a090dccd8ba1447fa70422a3b330e708bb4f08108d8ae51209ddf O/POTCAR              
   COPYR  = (c) Copyright 08Apr2002 Georg Kresse                                                    
   COPYR  = This file is part of the software VASP. Any use, copying, and all other rights are regul
   COPYR  = If you do not have a valid VASP license, you may not use, copy or distribute this file. 
   VRHFIN =O: s2p4                                                                                  
   LEXCH  = PE                                                                                      
   EATOM  =   432.3788 eV,   31.7789 Ry                                                             
                                                                                                    
   TITEL  = PAW_PBE O 08Apr2002                                                                     
   LULTRA =        F    use ultrasoft PP ?                                                          
   IUNSCR =        1    unscreen: 0-lin 1-nonlin 2-no                                               
   RPACOR =    1.200    partial core radius                                                         
   POMASS =   16.000; ZVAL   =    6.000    mass and valenz                                          
   RCORE  =    1.520    outmost cutoff radius                                                       
   RWIGS  =    1.550; RWIGS  =    0.820    wigner-seitz radius (au A)                               
   ENMAX  =  400.000; ENMIN  =  300.000 eV                                                          
   ICORE  =        2    local potential                                                             
   LCOR   =        T    correct aug charges                                                         
   LPAW   =        T    paw PP                                                                      
   EAUG   =  605.392                                                                                
   DEXC   =    0.000                                                                                
   RMAX   =    1.553    core radius for proj-oper                                                   
   RAUG   =    1.300    factor for augmentation sphere                                              
   RDEP   =    1.550    radius for radial grids                                                     
   RDEPT  =    1.329    core radius for aug-charge                                                  
                                                                                                    
   Atomic configuration                                                                             
    4 entries                                                                                       
     n  l   j            E        occ.                                                              
     1  0  0.50      -514.6923   2.0000                                                             
     2  0  0.50       -23.9615   2.0000                                                             
     2  1  0.50        -9.0305   4.0000                                                             
     3  2  1.50        -9.5241   0.0000                                                             
   Description                                                                                      
     l       E           TYP  RCUT    TYP  RCUT                                                     
     0    -23.9615318     23  1.200                                                                 
     0     -9.5240782     23  1.200                                                                 
     1     -9.0304911     23  1.520                                                                 
     1      8.1634956     23  1.520                                                                 
     2     -9.5240782      7  1.500                                                                 
  local pseudopotential read in
  partial core-charges read in
  partial kinetic energy density read in
  kinetic energy density of atom read in
  atomic valenz-charges read in
  non local Contribution for L=            0  read in
    real space projection operators read in
  non local Contribution for L=            0  read in
    real space projection operators read in
  non local Contribution for L=            1  read in
    real space projection operators read in
  non local Contribution for L=            1  read in
    real space projection operators read in
    PAW grid and wavefunctions read in
 
   number of l-projection  operators is LMAX  =            4
   number of lm-projection operators is LMMAX =            8
 
  PAW_PBE Pd_pv 28Jan2005               :
 energy of atom  1       EATOM=-2621.5550
 kinetic energy error for atom=    0.0088 (will be added to EATOM!!)
  PAW_PBE O 08Apr2002                   :
 energy of atom  2       EATOM= -432.3788
 kinetic energy error for atom=    0.0208 (will be added to EATOM!!)
 
 
 POSCAR: Pd O
  positions in cartesian coordinates
  No initial velocities read in
 IVDW         = 12
 VDW_S6       =    1.0000
 VDW_S8       =    0.7875
 VDW_A1       =    0.4289
 VDW_A2       =    4.4407
 VDW_RADIUS   =   50.2022 A
 VDW_CNRADIUS =   21.1671 A


 exchange-correlation table for PE
   RHO(1)=    0.500       N(1)  =     2000
   RHO(2)=  100.500       N(2)  =     4000
 


--------------------------------------------------------------------------------------------------------


 ion  position               nearest neighbor table
   1  0.500  0.000  0.500-   3 2.03   4 2.03   3 2.03   4 2.03
   2  0.000  0.500  0.000-   3 2.03   4 2.03   3 2.03   4 2.03
   3  0.000  0.000  0.750-   1 2.03   2 2.03   2 2.03   1 2.03
   4  0.000  0.000  0.250-   1 2.03   2 2.03   2 2.03   1 2.03
 
  LATTYP: Found a simple tetragonal cell.
 ALAT       =     3.0536041100
 C/A-ratio  =     1.7589892457
  
  Lattice vectors:
  
 A1 = (   3.0536041100,   0.0000000000,   0.0000000000)
 A2 = (   0.0000000000,   3.0536041100,   0.0000000000)
 A3 = (   0.0000000000,   0.0000000000,   5.3712567900)


Analysis of symmetry for initial positions (statically):
=====================================================================
 Subroutine PRICEL returns:
 Original cell was already a primitive cell.
 

 Routine SETGRP: Setting up the symmetry group for a 
 simple tetragonal supercell.


 Subroutine GETGRP returns: Found 16 space group operations
 (whereof  8 operations were pure point group operations)
 out of a pool of 16 trial point group operations.


The static configuration has the point symmetry D_2h.
 The point group associated with its full space group is D_4h.


Analysis of symmetry for dynamics (positions and initial velocities):
=====================================================================
 Subroutine PRICEL returns:
 Original cell was already a primitive cell.
 

 Routine SETGRP: Setting up the symmetry group for a 
 simple tetragonal supercell.


 Subroutine GETGRP returns: Found 16 space group operations
 (whereof  8 operations were pure point group operations)
 out of a pool of 16 trial point group operations.


The dynamic configuration has the point symmetry D_2h.
 The point group associated with its full space group is D_4h.


Analysis of structural, dynamic, and magnetic symmetry:
=====================================================================
 Subroutine PRICEL returns:
 Original cell was already a primitive cell.
 

 Routine SETGRP: Setting up the symmetry group for a 
 simple tetragonal supercell.


 Subroutine GETGRP returns: Found 16 space group operations
 (whereof  8 operations were pure point group operations)
 out of a pool of 16 trial point group operations.


The overall configuration has the point symmetry D_2h.
 The point group associated with its full space group is D_4h.


 Subroutine INISYM returns: Found 16 space group operations
 (whereof  8 operations are pure point group operations),
 and found     1 'primitive' translations


----------------------------------------------------------------------------------------

                                     Primitive cell                                     

  volume of cell :      50.0843

  direct lattice vectors                    reciprocal lattice vectors
     3.053604110  0.000000000  0.000000000     0.327481875 -0.000000000  0.000000000
     0.000000000  3.053604110  0.000000000     0.000000000  0.327481875  0.000000000
     0.000000000  0.000000000  5.371256790    -0.000000000 -0.000000000  0.186176167

  length of vectors
     3.053604110  3.053604110  5.371256790     0.327481875  0.327481875  0.186176167

  position of ions in fractional coordinates (direct lattice)
     0.500000000  0.000000000  0.500000000
     0.000000000  0.500000000  0.000000000
     0.000000000  0.000000000  0.750000000
     0.000000000  0.000000000  0.250000000

  ion indices of the primitive-cell ions
   primitive index   ion index
                 1           1
                 2           2
                 3           3
                 4           4

----------------------------------------------------------------------------------------

 
 
 KPOINTS: Automatic mesh                          

Automatic generation of k-mesh.
 Grid dimensions read from file:
 generate k-points for:   10   10    8

 Generating k-lattice:

  Cartesian coordinates                     Fractional coordinates (reciprocal lattice)
     0.032748188 -0.000000000  0.000000000     0.100000000  0.000000000  0.000000000
     0.000000000  0.032748188  0.000000000     0.000000000  0.100000000  0.000000000
    -0.000000000 -0.000000000  0.023272021     0.000000000  0.000000000  0.125000000

  Length of vectors
     0.032748188  0.032748188  0.023272021

  Shift w.r.t. Gamma in fractional coordinates (k-lattice)
     0.000000000  0.000000000  0.000000000

 
 Subroutine IBZKPT returns following result:
 ===========================================
 
 Found    105 irreducible k-points:
 
 Following reciprocal coordinates:
            Coordinates               Weight
  0.000000  0.000000  0.000000      1.000000
  0.100000  0.000000  0.000000      4.000000
  0.200000  0.000000  0.000000      4.000000
  0.300000  0.000000  0.000000      4.000000
  0.400000  0.000000  0.000000      4.000000
  0.500000  0.000000  0.000000      2.000000
  0.100000  0.100000  0.000000      4.000000
  0.200000  0.100000  0.000000      8.000000
  0.300000  0.100000  0.000000      8.000000
  0.400000  0.100000  0.000000      8.000000
  0.500000  0.100000  0.000000      4.000000
  0.200000  0.200000  0.000000      4.000000
  0.300000  0.200000  0.000000      8.000000
  0.400000  0.200000  0.000000      8.000000
  0.500000  0.200000  0.000000      4.000000
  0.300000  0.300000  0.000000      4.000000
  0.400000  0.300000  0.000000      8.000000
  0.500000  0.300000  0.000000      4.000000
  0.400000  0.400000  0.000000      4.000000
  0.500000  0.400000  0.000000      4.000000
  0.500000  0.500000  0.000000      1.000000
  0.000000  0.000000  0.125000      2.000000
  0.100000  0.000000  0.125000      8.000000
  0.200000  0.000000  0.125000      8.000000
  0.300000  0.000000  0.125000      8.000000
  0.400000  0.000000  0.125000      8.000000
  0.500000  0.000000  0.125000      4.000000
  0.100000  0.100000  0.125000      8.000000
  0.200000  0.100000  0.125000     16.000000
  0.300000  0.100000  0.125000     16.000000
  0.400000  0.100000  0.125000     16.000000
  0.500000  0.100000  0.125000      8.000000
  0.200000  0.200000  0.125000      8.000000
  0.300000  0.200000  0.125000     16.000000
  0.400000  0.200000  0.125000     16.000000
  0.500000  0.200000  0.125000      8.000000
  0.300000  0.300000  0.125000      8.000000
  0.400000  0.300000  0.125000     16.000000
  0.500000  0.300000  0.125000      8.000000
  0.400000  0.400000  0.125000      8.000000
  0.500000  0.400000  0.125000      8.000000
  0.500000  0.500000  0.125000      2.000000
  0.000000  0.000000  0.250000      2.000000
  0.100000  0.000000  0.250000      8.000000
  0.200000  0.000000  0.250000      8.000000
  0.300000  0.000000  0.250000      8.000000
  0.400000  0.000000  0.250000      8.000000
  0.500000  0.000000  0.250000      4.000000
  0.100000  0.100000  0.250000      8.000000
  0.200000  0.100000  0.250000     16.000000
  0.300000  0.100000  0.250000     16.000000
  0.400000  0.100000  0.250000     16.000000
  0.500000  0.100000  0.250000      8.000000
  0.200000  0.200000  0.250000      8.000000
  0.300000  0.200000  0.250000     16.000000
  0.400000  0.200000  0.250000     16.000000
  0.500000  0.200000  0.250000      8.000000
  0.300000  0.300000  0.250000      8.000000
  0.400000  0.300000  0.250000     16.000000
  0.500000  0.300000  0.250000      8.000000
  0.400000  0.400000  0.250000      8.000000
  0.500000  0.400000  0.250000      8.000000
  0.500000  0.500000  0.250000      2.000000
  0.000000  0.000000  0.375000      2.000000
  0.100000  0.000000  0.375000      8.000000
  0.200000  0.000000  0.375000      8.000000
  0.300000  0.000000  0.375000      8.000000
  0.400000  0.000000  0.375000      8.000000
  0.500000  0.000000  0.375000      4.000000
  0.100000  0.100000  0.375000      8.000000
  0.200000  0.100000  0.375000     16.000000
  0.300000  0.100000  0.375000     16.000000
  0.400000  0.100000  0.375000     16.000000
  0.500000  0.100000  0.375000      8.000000
  0.200000  0.200000  0.375000      8.000000
  0.300000  0.200000  0.375000     16.000000
  0.400000  0.200000  0.375000     16.000000
  0.500000  0.200000  0.375000      8.000000
  0.300000  0.300000  0.375000      8.000000
  0.400000  0.300000  0.375000     16.000000
  0.500000  0.300000  0.375000      8.000000
  0.400000  0.400000  0.375000      8.000000
  0.500000  0.400000  0.375000      8.000000
  0.500000  0.500000  0.375000      2.000000
  0.000000  0.000000  0.500000      1.000000
  0.100000  0.000000  0.500000      4.000000
  0.200000  0.000000  0.500000      4.000000
  0.300000  0.000000  0.500000      4.000000
  0.400000  0.000000  0.500000      4.000000
  0.500000  0.000000  0.500000      2.000000
  0.100000  0.100000  0.500000      4.000000
  0.200000  0.100000  0.500000      8.000000
  0.300000  0.100000  0.500000      8.000000
  0.400000  0.100000  0.500000      8.000000
  0.500000  0.100000  0.500000      4.000000
  0.200000  0.200000  0.500000      4.000000
  0.300000  0.200000  0.500000      8.000000
  0.400000  0.200000  0.500000      8.000000
  0.500000  0.200000  0.500000      4.000000
  0.300000  0.300000  0.500000      4.000000
  0.400000  0.300000  0.500000      8.000000
  0.500000  0.300000  0.500000      4.000000
  0.400000  0.400000  0.500000      4.000000
  0.500000  0.400000  0.500000      4.000000
  0.500000  0.500000  0.500000      1.000000
 
 Following cartesian coordinates:
            Coordinates               Weight
  0.000000  0.000000  0.000000      1.000000
  0.032748  0.000000  0.000000      4.000000
  0.065496  0.000000  0.000000      4.000000
  0.098245  0.000000  0.000000      4.000000
  0.130993  0.000000  0.000000      4.000000
  0.163741  0.000000  0.000000      2.000000
  0.032748  0.032748  0.000000      4.000000
  0.065496  0.032748  0.000000      8.000000
  0.098245  0.032748  0.000000      8.000000
  0.130993  0.032748  0.000000      8.000000
  0.163741  0.032748  0.000000      4.000000
  0.065496  0.065496  0.000000      4.000000
  0.098245  0.065496  0.000000      8.000000
  0.130993  0.065496  0.000000      8.000000
  0.163741  0.065496  0.000000      4.000000
  0.098245  0.098245  0.000000      4.000000
  0.130993  0.098245  0.000000      8.000000
  0.163741  0.098245  0.000000      4.000000
  0.130993  0.130993  0.000000      4.000000
  0.163741  0.130993  0.000000      4.000000
  0.163741  0.163741  0.000000      1.000000
  0.000000  0.000000  0.023272      2.000000
  0.032748  0.000000  0.023272      8.000000
  0.065496  0.000000  0.023272      8.000000
  0.098245  0.000000  0.023272      8.000000
  0.130993  0.000000  0.023272      8.000000
  0.163741  0.000000  0.023272      4.000000
  0.032748  0.032748  0.023272      8.000000
  0.065496  0.032748  0.023272     16.000000
  0.098245  0.032748  0.023272     16.000000
  0.130993  0.032748  0.023272     16.000000
  0.163741  0.032748  0.023272      8.000000
  0.065496  0.065496  0.023272      8.000000
  0.098245  0.065496  0.023272     16.000000
  0.130993  0.065496  0.023272     16.000000
  0.163741  0.065496  0.023272      8.000000
  0.098245  0.098245  0.023272      8.000000
  0.130993  0.098245  0.023272     16.000000
  0.163741  0.098245  0.023272      8.000000
  0.130993  0.130993  0.023272      8.000000
  0.163741  0.130993  0.023272      8.000000
  0.163741  0.163741  0.023272      2.000000
  0.000000  0.000000  0.046544      2.000000
  0.032748  0.000000  0.046544      8.000000
  0.065496  0.000000  0.046544      8.000000
  0.098245  0.000000  0.046544      8.000000
  0.130993  0.000000  0.046544      8.000000
  0.163741  0.000000  0.046544      4.000000
  0.032748  0.032748  0.046544      8.000000
  0.065496  0.032748  0.046544     16.000000
  0.098245  0.032748  0.046544     16.000000
  0.130993  0.032748  0.046544     16.000000
  0.163741  0.032748  0.046544      8.000000
  0.065496  0.065496  0.046544      8.000000
  0.098245  0.065496  0.046544     16.000000
  0.130993  0.065496  0.046544     16.000000
  0.163741  0.065496  0.046544      8.000000
  0.098245  0.098245  0.046544      8.000000
  0.130993  0.098245  0.046544     16.000000
  0.163741  0.098245  0.046544      8.000000
  0.130993  0.130993  0.046544      8.000000
  0.163741  0.130993  0.046544      8.000000
  0.163741  0.163741  0.046544      2.000000
  0.000000  0.000000  0.069816      2.000000
  0.032748  0.000000  0.069816      8.000000
  0.065496  0.000000  0.069816      8.000000
  0.098245  0.000000  0.069816      8.000000
  0.130993  0.000000  0.069816      8.000000
  0.163741  0.000000  0.069816      4.000000
  0.032748  0.032748  0.069816      8.000000
  0.065496  0.032748  0.069816     16.000000
  0.098245  0.032748  0.069816     16.000000
  0.130993  0.032748  0.069816     16.000000
  0.163741  0.032748  0.069816      8.000000
  0.065496  0.065496  0.069816      8.000000
  0.098245  0.065496  0.069816     16.000000
  0.130993  0.065496  0.069816     16.000000
  0.163741  0.065496  0.069816      8.000000
  0.098245  0.098245  0.069816      8.000000
  0.130993  0.098245  0.069816     16.000000
  0.163741  0.098245  0.069816      8.000000
  0.130993  0.130993  0.069816      8.000000
  0.163741  0.130993  0.069816      8.000000
  0.163741  0.163741  0.069816      2.000000
  0.000000  0.000000  0.093088      1.000000
  0.032748  0.000000  0.093088      4.000000
  0.065496  0.000000  0.093088      4.000000
  0.098245  0.000000  0.093088      4.000000
  0.130993  0.000000  0.093088      4.000000
  0.163741  0.000000  0.093088      2.000000
  0.032748  0.032748  0.093088      4.000000
  0.065496  0.032748  0.093088      8.000000
  0.098245  0.032748  0.093088      8.000000
  0.130993  0.032748  0.093088      8.000000
  0.163741  0.032748  0.093088      4.000000
  0.065496  0.065496  0.093088      4.000000
  0.098245  0.065496  0.093088      8.000000
  0.130993  0.065496  0.093088      8.000000
  0.163741  0.065496  0.093088      4.000000
  0.098245  0.098245  0.093088      4.000000
  0.130993  0.098245  0.093088      8.000000
  0.163741  0.098245  0.093088      4.000000
  0.130993  0.130993  0.093088      4.000000
  0.163741  0.130993  0.093088      4.000000
  0.163741  0.163741  0.093088      1.000000
 


--------------------------------------------------------------------------------------------------------




 Dimension of arrays:
   k-points           NKPTS =    105   k-points in BZ     NKDIM =    105   number of bands    NBANDS=     28
   number of dos      NEDOS =    301   number of ions     NIONS =      4
   non local maximal  LDIM  =      6   non local SUM 2l+1 LMDIM =     18
   total plane-waves  NPLWV =  23040
   max r-space proj   IRMAX =      1   max aug-charges    IRDMAX= 147517
   dimension x,y,z NGX =    24 NGY =   24 NGZ =   40
   dimension x,y,z NGXF=    48 NGYF=   48 NGZF=   80
   support grid    NGXF=    96 NGYF=   96 NGZF=  160
   ions per type =               2   2
   NGX,Y,Z   is equivalent  to a cutoff of  13.07, 13.07, 12.38 a.u.
   NGXF,Y,Z  is equivalent  to a cutoff of  26.13, 26.13, 24.76 a.u.

 SYSTEM =  pddmc                                   
 POSCAR =  Pd O                                    

 Startparameter for this run:
   NWRITE =      2    write-flag & timer
   PREC   = accura    normal or accurate (medium, high low for compatibility)
   ISTART =      0    job   : 0-new  1-cont  2-samecut
   ICHARG =      2    charge: 1-file 2-atom 10-const
   ISPIN  =      2    spin polarized calculation?
   LNONCOLLINEAR =      F non collinear calculations
   LSORBIT =      F    spin-orbit coupling
   INIWAV =      1    electr: 0-lowe 1-rand  2-diag
   LASPH  =      T    aspherical Exc in radial PAW
 Electronic Relaxation 1
   ENCUT  =  520.0 eV  38.22 Ry    6.18 a.u.   5.68  5.68  9.99*2*pi/ulx,y,z
   ENINI  =  520.0     initial cutoff
   ENAUG  =  605.4 eV  augmentation charge cutoff
   NELM   =    200;   NELMIN=  5; NELMDL= -5     # of ELM steps 
   EDIFF  = 0.1E-05   stopping-criterion for ELM
   LREAL  =      F    real-space projection
   NLSPLINE    = F    spline interpolate recip. space projectors
   LCOMPAT=      F    compatible to vasp.4.4
   GGA_COMPAT  = T    GGA compatible to vasp.4.4-vasp.4.6
   LMAXPAW     = -100 max onsite density
   LMAXMIX     =    2 max onsite mixed and CHGCAR
   VOSKOWN=      0    Vosko Wilk Nusair interpolation
   ROPT   =    0.00000   0.00000
 Ionic relaxation
   EDIFFG = -.1E-01   stopping-criterion for IOM
   NSW    =      0    number of steps for IOM
   NBLOCK =      1;   KBLOCK =      1    inner block; outer block 
   IBRION =     -1    ionic relax: 0-MD 1-quasi-New 2-CG
   NFREE  =      0    steps in history (QN), initial steepest desc. (CG)
   ISIF   =      0    stress and relaxation
   IWAVPR =     10    prediction:  0-non 1-charg 2-wave 3-comb
   ISYM   =      2    0-nonsym 1-usesym 2-fastsym
   LCORR  =      T    Harris-Foulkes like correction to forces

   POTIM  = 0.5000    time-step for ionic-motion
   TEIN   =    0.0    initial temperature
   TEBEG  =    0.0;   TEEND  =   0.0 temperature during run
   SMASS  =  -3.00    Nose mass-parameter (am)
   estimated Nose-frequenzy (Omega)   =  0.10E-29 period in steps = 0.13E+47 mass=  -0.213E-27a.u.
   SCALEE = 1.0000    scale energy and forces
   NPACO  =    256;   APACO  = 10.0  distance and # of slots for P.C.
   PSTRESS=    0.0 pullay stress

  Mass of Ions in am
   POMASS = 106.42 16.00
  Ionic Valenz
   ZVAL   =  16.00  6.00
  Atomic Wigner-Seitz radii
   RWIGS  =  -1.00 -1.00
  virtual crystal weights 
   VCA    =   1.00  1.00
   NELECT =      44.0000    total number of electrons
   NUPDOWN=      -1.0000    fix difference up-down

 DOS related values:
   EMIN   =  10.00;   EMAX   =-10.00  energy-range for DOS
   EFERMI =   0.00;   METHOD = LEGACY      
   ISMEAR =     0;   SIGMA  =   0.05  broadening in eV -4-tet -1-fermi 0-gaus

 Electronic relaxation 2 (details)
   IALGO  =     38    algorithm
   LDIAG  =      T    sub-space diagonalisation (order eigenvalues)
   LSUBROT=      F    optimize rotation matrix (better conditioning)
   TURBO    =      0    0=normal 1=particle mesh
   IRESTART =      0    0=no restart 2=restart with 2 vectors
   NREBOOT  =      0    no. of reboots
   NMIN     =      0    reboot dimension
   EREF     =   0.00    reference energy to select bands
   IMIX   =      4    mixing-type and parameters
     AMIX     =   0.40;   BMIX     =  1.00
     AMIX_MAG =   1.60;   BMIX_MAG =  1.00
     AMIN     =   0.10
     WC   =   100.;   INIMIX=   1;  MIXPRE=   1;  MAXMIX= -45

 Intra band minimization:
   WEIMIN = 0.0000     energy-eigenvalue tresh-hold
   EBREAK =  0.89E-08  absolut break condition
   DEPER  =   0.30     relativ break condition  

   TIME   =   0.40     timestep for ELM

  volume/ion in A,a.u.               =      12.52        84.50
  Fermi-wavevector in a.u.,A,eV,Ry     =   1.567925  2.962948 33.448407  2.458389
  Thomas-Fermi vector in A             =   2.670032
 
 Write flags
   LWAVE        =      F    write WAVECAR
   LDOWNSAMPLE  =      F    k-point downsampling of WAVECAR
   LCHARG       =      F    write CHGCAR
   LVTOT        =      F    write LOCPOT, total local potential
   LVHAR        =      F    write LOCPOT, Hartree potential only
   WRT_POTENTIAL= false  ! write potential to hdf5 file
   LELF         =      F    write electronic localiz. function (ELF)
   LORBIT       =     11    0 simple, 1 ext, 2 COOP (PROOUT), +10 PAW based schemes


 Dipole corrections
   LMONO      =      F    monopole corrections only (constant potential shift)
   LDIPOL     =      F    correct potential (dipole corrections)
   IDIPOL     =      0    1-x, 2-y, 3-z, 4-all directions 
   EPSILON    =  1.0000000 bulk dielectric constant
   LVACPOTAV  =      F  vacuum potentials using an averaging scheme for the charge density
   VACPOTFLAT =  0.1000000 required flatness to determine vacuum potential
 Exchange correlation treatment:
   GGA     = PE    functional components
   XC_C    = 1    coefficients multiplying the functional components
   LIBXC   =     F    Libxc                    
   VOSKOWN =     0    Vosko Wilk Nusair interpolation
   LHFCALC =     F    Hartree Fock is set to
   LHFONE  =     F    Hartree Fock one center treatment
   AEXX    =    0.0000 exact exchange contribution

 Parameters of functionals:
   PE:
     No parameter
 
 Van der Waals corrections
   IVDW    =    12    specifies the selected vdW correction

 Linear response parameters
   LEPSILON=     F    determine dielectric tensor
   LRPA    =     F    only Hartree local field effects (RPA)
   LNABLA  =     F    use nabla operator in PAW spheres
   LVEL    =     F    velocity operator in full k-point grid
   CSHIFT  =0.1000    complex shift for real part using Kramers Kronig
   OMEGAMAX=  -1.0    maximum frequency
   DEG_THRESHOLD= 0.2000000E-02 threshold for treating states as degnerate
   RTIME   =   -0.100 relaxation time in fs
  (WPLASMAI=    0.000 imaginary part of plasma frequency in eV, 0.658/RTIME)
   DFIELD  = 0.0000000 0.0000000 0.0000000 field for delta impulse in time
 
  Optional k-point grid parameters
   LKPOINTS_OPT  =     F    use optional k-point grid
   KPOINTS_OPT_MODE=     1    mode for optional k-point grid
 
 Orbital magnetization related:
   ORBITALMAG=     F  switch on orbital magnetization
   LCHIMAG   =     F  perturbation theory with respect to B field
   DQ        =  0.001000  dq finite difference perturbation B field
   LLRAUG    =     F  two centre corrections for induced B field
   LBONE     =     F  B-component reconstruction in AE one-centre
   LVGVCALC  =     T  calculate vGv susceptibility
   LVGVAPPL  =     F  apply vGv susceptibility instead of pGv for G=0

 Random number generation:
   RANDOM_GENERATOR = DEFAULT
   PCG_SEED         = not used


--------------------------------------------------------------------------------------------------------


 Static calculation
 charge density and potential will be updated during run
 spin polarized calculation
 Variant of blocked Davidson
 Davidson routine will perform the subspace rotation
 perform sub-space diagonalisation
    after iterative eigenvector-optimisation
 modified Broyden-mixing scheme, WC =      100.0
 initial mixing is a Kerker type mixing with AMIX =  0.4000 and BMIX =      1.0000
 Hartree-type preconditioning will be used
 using additional bands             6
 reciprocal scheme for non local part
 use partial core corrections
 calculate Harris-corrections to forces 
   (improved forces if not selfconsistent)
 use gradient corrections 
 use of overlap-Matrix (Vanderbilt PP)
 Gauss-broadening in eV      SIGMA  =   0.05


--------------------------------------------------------------------------------------------------------


  energy-cutoff  :      520.00
  volume of cell :       50.08
      direct lattice vectors                 reciprocal lattice vectors
     3.053604110  0.000000000  0.000000000     0.327481875 -0.000000000  0.000000000
     0.000000000  3.053604110  0.000000000     0.000000000  0.327481875  0.000000000
     0.000000000  0.000000000  5.371256790    -0.000000000 -0.000000000  0.186176167

  length of vectors
     3.053604110  3.053604110  5.371256790     0.327481875  0.327481875  0.186176167


 
 k-points in units of 2pi/SCALE and weight: Automatic mesh                          
   0.00000000  0.00000000  0.00000000       0.001
   0.03274819  0.00000000  0.00000000       0.005
   0.06549638  0.00000000  0.00000000       0.005
   0.09824456  0.00000000  0.00000000       0.005
   0.13099275  0.00000000  0.00000000       0.005
   0.16374094  0.00000000  0.00000000       0.003
   0.03274819  0.03274819  0.00000000       0.005
   0.06549638  0.03274819  0.00000000       0.010
   0.09824456  0.03274819  0.00000000       0.010
   0.13099275  0.03274819  0.00000000       0.010
   0.16374094  0.03274819  0.00000000       0.005
   0.06549638  0.06549638  0.00000000       0.005
   0.09824456  0.06549638  0.00000000       0.010
   0.13099275  0.06549638  0.00000000       0.010
   0.16374094  0.06549638  0.00000000       0.005
   0.09824456  0.09824456  0.00000000       0.005
   0.13099275  0.09824456  0.00000000       0.010
   0.16374094  0.09824456  0.00000000       0.005
   0.13099275  0.13099275  0.00000000       0.005
   0.16374094  0.13099275  0.00000000       0.005
   0.16374094  0.16374094  0.00000000       0.001
   0.00000000  0.00000000  0.02327202       0.003
   0.03274819  0.00000000  0.02327202       0.010
   0.06549638  0.00000000  0.02327202       0.010
   0.09824456  0.00000000  0.02327202       0.010
   0.13099275  0.00000000  0.02327202       0.010
   0.16374094  0.00000000  0.02327202       0.005
   0.03274819  0.03274819  0.02327202       0.010
   0.06549638  0.03274819  0.02327202       0.020
   0.09824456  0.03274819  0.02327202       0.020
   0.13099275  0.03274819  0.02327202       0.020
   0.16374094  0.03274819  0.02327202       0.010
   0.06549638  0.06549638  0.02327202       0.010
   0.09824456  0.06549638  0.02327202       0.020
   0.13099275  0.06549638  0.02327202       0.020
   0.16374094  0.06549638  0.02327202       0.010
   0.09824456  0.09824456  0.02327202       0.010
   0.13099275  0.09824456  0.02327202       0.020
   0.16374094  0.09824456  0.02327202       0.010
   0.13099275  0.13099275  0.02327202       0.010
   0.16374094  0.13099275  0.02327202       0.010
   0.16374094  0.16374094  0.02327202       0.003
   0.00000000  0.00000000  0.04654404       0.003
   0.03274819  0.00000000  0.04654404       0.010
   0.06549638  0.00000000  0.04654404       0.010
   0.09824456  0.00000000  0.04654404       0.010
   0.13099275  0.00000000  0.04654404       0.010
   0.16374094  0.00000000  0.04654404       0.005
   0.03274819  0.03274819  0.04654404       0.010
   0.06549638  0.03274819  0.04654404       0.020
   0.09824456  0.03274819  0.04654404       0.020
   0.13099275  0.03274819  0.04654404       0.020
   0.16374094  0.03274819  0.04654404       0.010
   0.06549638  0.06549638  0.04654404       0.010
   0.09824456  0.06549638  0.04654404       0.020
   0.13099275  0.06549638  0.04654404       0.020
   0.16374094  0.06549638  0.04654404       0.010
   0.09824456  0.09824456  0.04654404       0.010
   0.13099275  0.09824456  0.04654404       0.020
   0.16374094  0.09824456  0.04654404       0.010
   0.13099275  0.13099275  0.04654404       0.010
   0.16374094  0.13099275  0.04654404       0.010
   0.16374094  0.16374094  0.04654404       0.003
   0.00000000  0.00000000  0.06981606       0.003
   0.03274819  0.00000000  0.06981606       0.010
   0.06549638  0.00000000  0.06981606       0.010
   0.09824456  0.00000000  0.06981606       0.010
   0.13099275  0.00000000  0.06981606       0.010
   0.16374094  0.00000000  0.06981606       0.005
   0.03274819  0.03274819  0.06981606       0.010
   0.06549638  0.03274819  0.06981606       0.020
   0.09824456  0.03274819  0.06981606       0.020
   0.13099275  0.03274819  0.06981606       0.020
   0.16374094  0.03274819  0.06981606       0.010
   0.06549638  0.06549638  0.06981606       0.010
   0.09824456  0.06549638  0.06981606       0.020
   0.13099275  0.06549638  0.06981606       0.020
   0.16374094  0.06549638  0.06981606       0.010
   0.09824456  0.09824456  0.06981606       0.010
   0.13099275  0.09824456  0.06981606       0.020
   0.16374094  0.09824456  0.06981606       0.010
   0.13099275  0.13099275  0.06981606       0.010
   0.16374094  0.13099275  0.06981606       0.010
   0.16374094  0.16374094  0.06981606       0.003
   0.00000000  0.00000000  0.09308808       0.001
   0.03274819  0.00000000  0.09308808       0.005
   0.06549638  0.00000000  0.09308808       0.005
   0.09824456  0.00000000  0.09308808       0.005
   0.13099275  0.00000000  0.09308808       0.005
   0.16374094  0.00000000  0.09308808       0.003
   0.03274819  0.03274819  0.09308808       0.005
   0.06549638  0.03274819  0.09308808       0.010
   0.09824456  0.03274819  0.09308808       0.010
   0.13099275  0.03274819  0.09308808       0.010
   0.16374094  0.03274819  0.09308808       0.005
   0.06549638  0.06549638  0.09308808       0.005
   0.09824456  0.06549638  0.09308808       0.010
   0.13099275  0.06549638  0.09308808       0.010
   0.16374094  0.06549638  0.09308808       0.005
   0.09824456  0.09824456  0.09308808       0.005
   0.13099275  0.09824456  0.09308808       0.010
   0.16374094  0.09824456  0.09308808       0.005
   0.13099275  0.13099275  0.09308808       0.005
   0.16374094  0.13099275  0.09308808       0.005
   0.16374094  0.16374094  0.09308808       0.001
 
 k-points in reciprocal lattice and weights: Automatic mesh                          
   0.00000000  0.00000000  0.00000000       0.001
   0.10000000  0.00000000  0.00000000       0.005
   0.20000000  0.00000000  0.00000000       0.005
   0.30000000  0.00000000  0.00000000       0.005
   0.40000000  0.00000000  0.00000000       0.005
   0.50000000  0.00000000  0.00000000       0.003
   0.10000000  0.10000000  0.00000000       0.005
   0.20000000  0.10000000  0.00000000       0.010
   0.30000000  0.10000000  0.00000000       0.010
   0.40000000  0.10000000  0.00000000       0.010
   0.50000000  0.10000000  0.00000000       0.005
   0.20000000  0.20000000  0.00000000       0.005
   0.30000000  0.20000000  0.00000000       0.010
   0.40000000  0.20000000  0.00000000       0.010
   0.50000000  0.20000000  0.00000000       0.005
   0.30000000  0.30000000  0.00000000       0.005
   0.40000000  0.30000000  0.00000000       0.010
   0.50000000  0.30000000  0.00000000       0.005
   0.40000000  0.40000000  0.00000000       0.005
   0.50000000  0.40000000  0.00000000       0.005
   0.50000000  0.50000000  0.00000000       0.001
   0.00000000  0.00000000  0.12500000       0.003
   0.10000000  0.00000000  0.12500000       0.010
   0.20000000  0.00000000  0.12500000       0.010
   0.30000000  0.00000000  0.12500000       0.010
   0.40000000  0.00000000  0.12500000       0.010
   0.50000000  0.00000000  0.12500000       0.005
   0.10000000  0.10000000  0.12500000       0.010
   0.20000000  0.10000000  0.12500000       0.020
   0.30000000  0.10000000  0.12500000       0.020
   0.40000000  0.10000000  0.12500000       0.020
   0.50000000  0.10000000  0.12500000       0.010
   0.20000000  0.20000000  0.12500000       0.010
   0.30000000  0.20000000  0.12500000       0.020
   0.40000000  0.20000000  0.12500000       0.020
   0.50000000  0.20000000  0.12500000       0.010
   0.30000000  0.30000000  0.12500000       0.010
   0.40000000  0.30000000  0.12500000       0.020
   0.50000000  0.30000000  0.12500000       0.010
   0.40000000  0.40000000  0.12500000       0.010
   0.50000000  0.40000000  0.12500000       0.010
   0.50000000  0.50000000  0.12500000       0.003
   0.00000000  0.00000000  0.25000000       0.003
   0.10000000  0.00000000  0.25000000       0.010
   0.20000000  0.00000000  0.25000000       0.010
   0.30000000  0.00000000  0.25000000       0.010
   0.40000000  0.00000000  0.25000000       0.010
   0.50000000  0.00000000  0.25000000       0.005
   0.10000000  0.10000000  0.25000000       0.010
   0.20000000  0.10000000  0.25000000       0.020
   0.30000000  0.10000000  0.25000000       0.020
   0.40000000  0.10000000  0.25000000       0.020
   0.50000000  0.10000000  0.25000000       0.010
   0.20000000  0.20000000  0.25000000       0.010
   0.30000000  0.20000000  0.25000000       0.020
   0.40000000  0.20000000  0.25000000       0.020
   0.50000000  0.20000000  0.25000000       0.010
   0.30000000  0.30000000  0.25000000       0.010
   0.40000000  0.30000000  0.25000000       0.020
   0.50000000  0.30000000  0.25000000       0.010
   0.40000000  0.40000000  0.25000000       0.010
   0.50000000  0.40000000  0.25000000       0.010
   0.50000000  0.50000000  0.25000000       0.003
   0.00000000  0.00000000  0.37500000       0.003
   0.10000000  0.00000000  0.37500000       0.010
   0.20000000  0.00000000  0.37500000       0.010
   0.30000000  0.00000000  0.37500000       0.010
   0.40000000  0.00000000  0.37500000       0.010
   0.50000000  0.00000000  0.37500000       0.005
   0.10000000  0.10000000  0.37500000       0.010
   0.20000000  0.10000000  0.37500000       0.020
   0.30000000  0.10000000  0.37500000       0.020
   0.40000000  0.10000000  0.37500000       0.020
   0.50000000  0.10000000  0.37500000       0.010
   0.20000000  0.20000000  0.37500000       0.010
   0.30000000  0.20000000  0.37500000       0.020
   0.40000000  0.20000000  0.37500000       0.020
   0.50000000  0.20000000  0.37500000       0.010
   0.30000000  0.30000000  0.37500000       0.010
   0.40000000  0.30000000  0.37500000       0.020
   0.50000000  0.30000000  0.37500000       0.010
   0.40000000  0.40000000  0.37500000       0.010
   0.50000000  0.40000000  0.37500000       0.010
   0.50000000  0.50000000  0.37500000       0.003
   0.00000000  0.00000000  0.50000000       0.001
   0.10000000  0.00000000  0.50000000       0.005
   0.20000000  0.00000000  0.50000000       0.005
   0.30000000  0.00000000  0.50000000       0.005
   0.40000000  0.00000000  0.50000000       0.005
   0.50000000  0.00000000  0.50000000       0.003
   0.10000000  0.10000000  0.50000000       0.005
   0.20000000  0.10000000  0.50000000       0.010
   0.30000000  0.10000000  0.50000000       0.010
   0.40000000  0.10000000  0.50000000       0.010
   0.50000000  0.10000000  0.50000000       0.005
   0.20000000  0.20000000  0.50000000       0.005
   0.30000000  0.20000000  0.50000000       0.010
   0.40000000  0.20000000  0.50000000       0.010
   0.50000000  0.20000000  0.50000000       0.005
   0.30000000  0.30000000  0.50000000       0.005
   0.40000000  0.30000000  0.50000000       0.010
   0.50000000  0.30000000  0.50000000       0.005
   0.40000000  0.40000000  0.50000000       0.005
   0.50000000  0.40000000  0.50000000       0.005
   0.50000000  0.50000000  0.50000000       0.001
 
 position of ions in fractional coordinates (direct lattice) 
   0.50000000  0.00000000  0.50000000
   0.00000000  0.50000000  0.00000000
   0.00000000  0.00000000  0.75000000
   0.00000000  0.00000000  0.25000000
 
 position of ions in cartesian coordinates  (Angst):
   1.52680206  0.00000000  2.68562840
   0.00000000  1.52680206  0.00000000
   0.00000000  0.00000000  4.02844259
   0.00000000  0.00000000  1.34281420
 


--------------------------------------------------------------------------------------------------------


 k-point     1 :   0.0000 0.0000 0.0000  plane waves:    1351
 k-point     2 :   0.1000 0.0000 0.0000  plane waves:    1345
 k-point     3 :   0.2000 0.0000 0.0000  plane waves:    1355
 k-point     4 :   0.3000 0.0000 0.0000  plane waves:    1349
 k-point     5 :   0.4000 0.0000 0.0000  plane waves:    1358
 k-point     6 :   0.5000 0.0000 0.0000  plane waves:    1348
 k-point     7 :   0.1000 0.1000 0.0000  plane waves:    1346
 k-point     8 :   0.2000 0.1000 0.0000  plane waves:    1359
 k-point     9 :   0.3000 0.1000 0.0000  plane waves:    1357
 k-point    10 :   0.4000 0.1000 0.0000  plane waves:    1348
 k-point    11 :   0.5000 0.1000 0.0000  plane waves:    1342
 k-point    12 :   0.2000 0.2000 0.0000  plane waves:    1348
 k-point    13 :   0.3000 0.2000 0.0000  plane waves:    1345
 k-point    14 :   0.4000 0.2000 0.0000  plane waves:    1337
 k-point    15 :   0.5000 0.2000 0.0000  plane waves:    1350
 k-point    16 :   0.3000 0.3000 0.0000  plane waves:    1334
 k-point    17 :   0.4000 0.3000 0.0000  plane waves:    1344
 k-point    18 :   0.5000 0.3000 0.0000  plane waves:    1338
 k-point    19 :   0.4000 0.4000 0.0000  plane waves:    1334
 k-point    20 :   0.5000 0.4000 0.0000  plane waves:    1332
 k-point    21 :   0.5000 0.5000 0.0000  plane waves:    1320
 k-point    22 :   0.0000 0.0000 0.1250  plane waves:    1348
 k-point    23 :   0.1000 0.0000 0.1250  plane waves:    1346
 k-point    24 :   0.2000 0.0000 0.1250  plane waves:    1352
 k-point    25 :   0.3000 0.0000 0.1250  plane waves:    1349
 k-point    26 :   0.4000 0.0000 0.1250  plane waves:    1352
 k-point    27 :   0.5000 0.0000 0.1250  plane waves:    1346
 k-point    28 :   0.1000 0.1000 0.1250  plane waves:    1346
 k-point    29 :   0.2000 0.1000 0.1250  plane waves:    1350
 k-point    30 :   0.3000 0.1000 0.1250  plane waves:    1358
 k-point    31 :   0.4000 0.1000 0.1250  plane waves:    1350
 k-point    32 :   0.5000 0.1000 0.1250  plane waves:    1350
 k-point    33 :   0.2000 0.2000 0.1250  plane waves:    1351
 k-point    34 :   0.3000 0.2000 0.1250  plane waves:    1346
 k-point    35 :   0.4000 0.2000 0.1250  plane waves:    1343
 k-point    36 :   0.5000 0.2000 0.1250  plane waves:    1350
 k-point    37 :   0.3000 0.3000 0.1250  plane waves:    1333
 k-point    38 :   0.4000 0.3000 0.1250  plane waves:    1338
 k-point    39 :   0.5000 0.3000 0.1250  plane waves:    1342
 k-point    40 :   0.4000 0.4000 0.1250  plane waves:    1338
 k-point    41 :   0.5000 0.4000 0.1250  plane waves:    1340
 k-point    42 :   0.5000 0.5000 0.1250  plane waves:    1328
 k-point    43 :   0.0000 0.0000 0.2500  plane waves:    1340
 k-point    44 :   0.1000 0.0000 0.2500  plane waves:    1352
 k-point    45 :   0.2000 0.0000 0.2500  plane waves:    1349
 k-point    46 :   0.3000 0.0000 0.2500  plane waves:    1354
 k-point    47 :   0.4000 0.0000 0.2500  plane waves:    1351
 k-point    48 :   0.5000 0.0000 0.2500  plane waves:    1356
 k-point    49 :   0.1000 0.1000 0.2500  plane waves:    1351
 k-point    50 :   0.2000 0.1000 0.2500  plane waves:    1349
 k-point    51 :   0.3000 0.1000 0.2500  plane waves:    1352
 k-point    52 :   0.4000 0.1000 0.2500  plane waves:    1355
 k-point    53 :   0.5000 0.1000 0.2500  plane waves:    1362
 k-point    54 :   0.2000 0.2000 0.2500  plane waves:    1348
 k-point    55 :   0.3000 0.2000 0.2500  plane waves:    1343
 k-point    56 :   0.4000 0.2000 0.2500  plane waves:    1348
 k-point    57 :   0.5000 0.2000 0.2500  plane waves:    1348
 k-point    58 :   0.3000 0.3000 0.2500  plane waves:    1345
 k-point    59 :   0.4000 0.3000 0.2500  plane waves:    1342
 k-point    60 :   0.5000 0.3000 0.2500  plane waves:    1348
 k-point    61 :   0.4000 0.4000 0.2500  plane waves:    1346
 k-point    62 :   0.5000 0.4000 0.2500  plane waves:    1342
 k-point    63 :   0.5000 0.5000 0.2500  plane waves:    1332
 k-point    64 :   0.0000 0.0000 0.3750  plane waves:    1360
 k-point    65 :   0.1000 0.0000 0.3750  plane waves:    1349
 k-point    66 :   0.2000 0.0000 0.3750  plane waves:    1344
 k-point    67 :   0.3000 0.0000 0.3750  plane waves:    1347
 k-point    68 :   0.4000 0.0000 0.3750  plane waves:    1357
 k-point    69 :   0.5000 0.0000 0.3750  plane waves:    1370
 k-point    70 :   0.1000 0.1000 0.3750  plane waves:    1354
 k-point    71 :   0.2000 0.1000 0.3750  plane waves:    1350
 k-point    72 :   0.3000 0.1000 0.3750  plane waves:    1338
 k-point    73 :   0.4000 0.1000 0.3750  plane waves:    1354
 k-point    74 :   0.5000 0.1000 0.3750  plane waves:    1354
 k-point    75 :   0.2000 0.2000 0.3750  plane waves:    1351
 k-point    76 :   0.3000 0.2000 0.3750  plane waves:    1346
 k-point    77 :   0.4000 0.2000 0.3750  plane waves:    1351
 k-point    78 :   0.5000 0.2000 0.3750  plane waves:    1358
 k-point    79 :   0.3000 0.3000 0.3750  plane waves:    1350
 k-point    80 :   0.4000 0.3000 0.3750  plane waves:    1351
 k-point    81 :   0.5000 0.3000 0.3750  plane waves:    1352
 k-point    82 :   0.4000 0.4000 0.3750  plane waves:    1344
 k-point    83 :   0.5000 0.4000 0.3750  plane waves:    1346
 k-point    84 :   0.5000 0.5000 0.3750  plane waves:    1320
 k-point    85 :   0.0000 0.0000 0.5000  plane waves:    1348
 k-point    86 :   0.1000 0.0000 0.5000  plane waves:    1348
 k-point    87 :   0.2000 0.0000 0.5000  plane waves:    1352
 k-point    88 :   0.3000 0.0000 0.5000  plane waves:    1342
 k-point    89 :   0.4000 0.0000 0.5000  plane waves:    1362
 k-point    90 :   0.5000 0.0000 0.5000  plane waves:    1372
 k-point    91 :   0.1000 0.1000 0.5000  plane waves:    1350
 k-point    92 :   0.2000 0.1000 0.5000  plane waves:    1352
 k-point    93 :   0.3000 0.1000 0.5000  plane waves:    1346
 k-point    94 :   0.4000 0.1000 0.5000  plane waves:    1348
 k-point    95 :   0.5000 0.1000 0.5000  plane waves:    1356
 k-point    96 :   0.2000 0.2000 0.5000  plane waves:    1350
 k-point    97 :   0.3000 0.2000 0.5000  plane waves:    1346
 k-point    98 :   0.4000 0.2000 0.5000  plane waves:    1348
 k-point    99 :   0.5000 0.2000 0.5000  plane waves:    1352
 k-point   100 :   0.3000 0.3000 0.5000  plane waves:    1346
 k-point   101 :   0.4000 0.3000 0.5000  plane waves:    1360
 k-point   102 :   0.5000 0.3000 0.5000  plane waves:    1348
 k-point   103 :   0.4000 0.4000 0.5000  plane waves:    1350
 k-point   104 :   0.5000 0.4000 0.5000  plane waves:    1348
 k-point   105 :   0.5000 0.5000 0.5000  plane waves:    1328

 maximum and minimum number of plane-waves per node :      1372     1320

 maximum number of plane-waves:      1372
 maximum index in each direction: 
   IXMAX=    5   IYMAX=    5   IZMAX=    9
   IXMIN=   -6   IYMIN=   -6   IZMIN=  -10


 serial   3D FFT for wavefunctions
 parallel 3D FFT for charge:
    minimum data exchange during FFTs selected (reduces bandwidth)


 total amount of memory used by VASP MPI-rank0   117710. kBytes
=======================================================================

   base      :      30000. kBytes
   nonl-proj :      41577. kBytes
   fftplans  :       6896. kBytes
   grid      :       5621. kBytes
   one-center:        124. kBytes
   wavefun   :      33492. kBytes
 
     INWAV:  cpu time      0.0000: real time      0.0001
 Broyden mixing: mesh for mixing (old mesh)
   NGX = 11   NGY = 11   NGZ = 19
  (NGX  = 48   NGY  = 48   NGZ  = 80)
  gives a total of   2299 points

 initial charge density was supplied:
 charge density of overlapping atoms calculated
 number of electron      44.0000000 magnetization       4.0000000
 keeping initial charge density in first step


--------------------------------------------------------------------------------------------------------


 Maximum index for augmentation-charges         35753 (set IRDMAX)


--------------------------------------------------------------------------------------------------------


 First call to EWALD:  gamma=   0.481
 Maximum number of real-space cells 3x 3x 2
 Maximum number of reciprocal cells 2x 2x 4

    FEWALD:  cpu time      0.0004: real time      0.0004


--------------------------------------- Ionic step        1  -------------------------------------------




--------------------------------------- Iteration      1(   1)  ---------------------------------------


    POTLOK:  cpu time      0.0769: real time      0.0770
    SETDIJ:  cpu time      0.4807: real time      0.4810
     EDDAV:  cpu time      5.1592: real time      5.1893
       DOS:  cpu time      0.0029: real time      0.0029
    --------------------------------------------
      LOOP:  cpu time      5.7197: real time      5.7502

 eigenvalue-minimisations  : 11792
 total energy-change (2. order) : 0.4691906E+03  (-0.2791302E+04)
 number of electron      44.0000000 magnetization       4.0000000
 augmentation part       44.0000000 magnetization       4.0000000

 Free energy of the ion-electron system (eV)
  ---------------------------------------------------
  alpha Z        PSCENC =       264.60919239
  Ewald energy   TEWEN  =     -4637.17866551
  -Hartree energ DENC   =     -1556.19354633
  -exchange      EXHF   =         0.00000000
  -V(xc)+E(xc)   XCENC  =       221.00441200
  PAW double counting   =      5208.65407777    -5154.59282805
  entropy T*S    EENTRO =        -0.00062867
  eigenvalues    EBANDS =        15.08019254
  atomic energy  EATOM  =      6107.80840369
  Solvation  Ediel_sol  =         0.00000000
  ---------------------------------------------------
  free energy    TOTEN  =       469.19060983 eV

  energy without entropy =      469.19123851  energy(sigma->0) =      469.19092417


--------------------------------------------------------------------------------------------------------




--------------------------------------- Iteration      1(   2)  ---------------------------------------


     EDDAV:  cpu time      6.1257: real time      6.3093
       DOS:  cpu time      0.0008: real time      0.0009
    --------------------------------------------
      LOOP:  cpu time      6.1265: real time      6.3102

 eigenvalue-minimisations  : 12848
 total energy-change (2. order) :-0.4697358E+03  (-0.4547558E+03)
 number of electron      44.0000000 magnetization       4.0000000
 augmentation part       44.0000000 magnetization       4.0000000

 Free energy of the ion-electron system (eV)
  ---------------------------------------------------
  alpha Z        PSCENC =       264.60919239
  Ewald energy   TEWEN  =     -4637.17866551
  -Hartree energ DENC   =     -1556.19354633
  -exchange      EXHF   =         0.00000000
  -V(xc)+E(xc)   XCENC  =       221.00441200
  PAW double counting   =      5208.65407777    -5154.59282805
  entropy T*S    EENTRO =        -0.00182082
  eigenvalues    EBANDS =      -454.65440450
  atomic energy  EATOM  =      6107.80840369
  Solvation  Ediel_sol  =         0.00000000
  ---------------------------------------------------
  free energy    TOTEN  =        -0.54517935 eV

  energy without entropy =       -0.54335853  energy(sigma->0) =       -0.54426894


--------------------------------------------------------------------------------------------------------




--------------------------------------- Iteration      1(   3)  ---------------------------------------


     EDDAV:  cpu time      4.6618: real time      4.7277
       DOS:  cpu time      0.0008: real time      0.0008
    --------------------------------------------
      LOOP:  cpu time      4.6626: real time      4.7286

 eigenvalue-minimisations  : 12968
 total energy-change (2. order) :-0.2352883E+02  (-0.2321599E+02)
 number of electron      44.0000000 magnetization       4.0000000
 augmentation part       44.0000000 magnetization       4.0000000

 Free energy of the ion-electron system (eV)
  ---------------------------------------------------
  alpha Z        PSCENC =       264.60919239
  Ewald energy   TEWEN  =     -4637.17866551
  -Hartree energ DENC   =     -1556.19354633
  -exchange      EXHF   =         0.00000000
  -V(xc)+E(xc)   XCENC  =       221.00441200
  PAW double counting   =      5208.65407777    -5154.59282805
  entropy T*S    EENTRO =        -0.00267213
  eigenvalues    EBANDS =      -478.18238485
  atomic energy  EATOM  =      6107.80840369
  Solvation  Ediel_sol  =         0.00000000
  ---------------------------------------------------
  free energy    TOTEN  =       -24.07401102 eV

  energy without entropy =      -24.07133888  energy(sigma->0) =      -24.07267495


--------------------------------------------------------------------------------------------------------




--------------------------------------- Iteration      1(   4)  ---------------------------------------


     EDDAV:  cpu time      4.2201: real time      4.4879
       DOS:  cpu time      0.0008: real time      0.0008
    --------------------------------------------
      LOOP:  cpu time      4.2208: real time      4.4886

 eigenvalue-minimisations  : 12776
 total energy-change (2. order) :-0.2848167E+00  (-0.2846013E+00)
 number of electron      44.0000000 magnetization       4.0000000
 augmentation part       44.0000000 magnetization       4.0000000

 Free energy of the ion-electron system (eV)
  ---------------------------------------------------
  alpha Z        PSCENC =       264.60919239
  Ewald energy   TEWEN  =     -4637.17866551
  -Hartree energ DENC   =     -1556.19354633
  -exchange      EXHF   =         0.00000000
  -V(xc)+E(xc)   XCENC  =       221.00441200
  PAW double counting   =      5208.65407777    -5154.59282805
  entropy T*S    EENTRO =        -0.00271691
  eigenvalues    EBANDS =      -478.46715678
  atomic energy  EATOM  =      6107.80840369
  Solvation  Ediel_sol  =         0.00000000
  ---------------------------------------------------
  free energy    TOTEN  =       -24.35882773 eV

  energy without entropy =      -24.35611082  energy(sigma->0) =      -24.35746927


--------------------------------------------------------------------------------------------------------




--------------------------------------- Iteration      1(   5)  ---------------------------------------


     EDDAV:  cpu time      4.2775: real time      4.5370
       DOS:  cpu time      0.0009: real time      0.0009
    CHARGE:  cpu time      0.3869: real time      0.3869
    MIXING:  cpu time      0.0010: real time      0.0010
    --------------------------------------------
      LOOP:  cpu time      4.6663: real time      4.9258

 eigenvalue-minimisations  : 12984
 total energy-change (2. order) :-0.2875330E-02  (-0.2875128E-02)
 number of electron      44.0000001 magnetization       0.7197962
 augmentation part       16.2034527 magnetization       0.5594302

 Broyden mixing:
  rms(total) = 0.17634E+01    rms(broyden)= 0.17628E+01
  rms(prec ) = 0.26810E+01
  weight for this iteration     100.00

 Free energy of the ion-electron system (eV)
  ---------------------------------------------------
  alpha Z        PSCENC =       264.60919239
  Ewald energy   TEWEN  =     -4637.17866551
  -Hartree energ DENC   =     -1556.19354633
  -exchange      EXHF   =         0.00000000
  -V(xc)+E(xc)   XCENC  =       221.00441200
  PAW double counting   =      5208.65407777    -5154.59282805
  entropy T*S    EENTRO =        -0.00271927
  eigenvalues    EBANDS =      -478.47002976
  atomic energy  EATOM  =      6107.80840369
  Solvation  Ediel_sol  =         0.00000000
  ---------------------------------------------------
  free energy    TOTEN  =       -24.36170306 eV

  energy without entropy =      -24.35898379  energy(sigma->0) =      -24.36034343


--------------------------------------------------------------------------------------------------------




--------------------------------------- Iteration      1(   6)  ---------------------------------------


    POTLOK:  cpu time      0.0339: real time      0.0339
    SETDIJ:  cpu time      0.4060: real time      0.4060
     EDDAV:  cpu time      4.0971: real time      4.0974
       DOS:  cpu time      0.0007: real time      0.0007
    CHARGE:  cpu time      0.3909: real time      0.3909
    MIXING:  cpu time      0.0011: real time      0.0011
    --------------------------------------------
      LOOP:  cpu time      4.9297: real time      4.9300

 eigenvalue-minimisations  : 12316
 total energy-change (2. order) : 0.1625952E+01  (-0.1555166E+01)
 number of electron      44.0000001 magnetization       0.2585902
 augmentation part       16.8345069 magnetization       0.1912388

 Broyden mixing:
  rms(total) = 0.71271E+00    rms(broyden)= 0.71214E+00
  rms(prec ) = 0.12156E+01
  weight for this iteration     100.00

 eigenvalues of (default mixing * dielectric matrix)
  average eigenvalue GAMMA=   0.8328
  0.8328

 Free energy of the ion-electron system (eV)
  ---------------------------------------------------
  alpha Z        PSCENC =       264.60919239
  Ewald energy   TEWEN  =     -4637.17866551
  -Hartree energ DENC   =     -1526.07495697
  -exchange      EXHF   =         0.00000000
  -V(xc)+E(xc)   XCENC  =       220.35522721
  PAW double counting   =      5342.97186823    -5294.76553301
  entropy T*S    EENTRO =        -0.00074285
  eigenvalues    EBANDS =      -500.46054443
  atomic energy  EATOM  =      6107.80840369
  Solvation  Ediel_sol  =         0.00000000
  ---------------------------------------------------
  free energy    TOTEN  =       -22.73575123 eV

  energy without entropy =      -22.73500839  energy(sigma->0) =      -22.73537981


--------------------------------------------------------------------------------------------------------




--------------------------------------- Iteration      1(   7)  ---------------------------------------


    POTLOK:  cpu time      0.0335: real time      0.0335
    SETDIJ:  cpu time      0.4071: real time      0.4072
     EDDAV:  cpu time      4.0783: real time      4.0798
       DOS:  cpu time      0.0008: real time      0.0008
    CHARGE:  cpu time      0.3910: real time      0.3910
    MIXING:  cpu time      0.0011: real time      0.0011
    --------------------------------------------
      LOOP:  cpu time      4.9118: real time      4.9133

 eigenvalue-minimisations  : 12260
 total energy-change (2. order) : 0.5526443E+00  (-0.2520246E+00)
 number of electron      44.0000001 magnetization      -0.0655420
 augmentation part       16.5216600 magnetization      -0.0985248

 Broyden mixing:
  rms(total) = 0.36655E+00    rms(broyden)= 0.36651E+00
  rms(prec ) = 0.44163E+00
  weight for this iteration     100.00

 eigenvalues of (default mixing * dielectric matrix)
  average eigenvalue GAMMA=   0.8994
  1.1049  0.6938

 Free energy of the ion-electron system (eV)
  ---------------------------------------------------
  alpha Z        PSCENC =       264.60919239
  Ewald energy   TEWEN  =     -4637.17866551
  -Hartree energ DENC   =     -1539.29646055
  -exchange      EXHF   =         0.00000000
  -V(xc)+E(xc)   XCENC  =       220.55648588
  PAW double counting   =      5461.91994252    -5413.10495548
  entropy T*S    EENTRO =        -0.00116618
  eigenvalues    EBANDS =      -487.49588372
  atomic energy  EATOM  =      6107.80840369
  Solvation  Ediel_sol  =         0.00000000
  ---------------------------------------------------
  free energy    TOTEN  =       -22.18310695 eV

  energy without entropy =      -22.18194078  energy(sigma->0) =      -22.18252386


--------------------------------------------------------------------------------------------------------




--------------------------------------- Iteration      1(   8)  ---------------------------------------


    POTLOK:  cpu time      0.0338: real time      0.0338
    SETDIJ:  cpu time      0.4074: real time      0.4075
     EDDAV:  cpu time      4.1165: real time      4.1742
       DOS:  cpu time      0.0008: real time      0.0008
    CHARGE:  cpu time      0.3834: real time      0.4304
    MIXING:  cpu time      0.0010: real time      0.0010
    --------------------------------------------
      LOOP:  cpu time      4.9429: real time      5.0477

 eigenvalue-minimisations  : 12496
 total energy-change (2. order) :-0.1961432E-01  (-0.4192660E-01)
 number of electron      44.0000001 magnetization      -0.0577232
 augmentation part       16.5688617 magnetization      -0.0528751

 Broyden mixing:
  rms(total) = 0.14727E+00    rms(broyden)= 0.14724E+00
  rms(prec ) = 0.18880E+00
  weight for this iteration     100.00

 eigenvalues of (default mixing * dielectric matrix)
  average eigenvalue GAMMA=   1.1625
  0.7201  0.9774  1.7900

 Free energy of the ion-electron system (eV)
  ---------------------------------------------------
  alpha Z        PSCENC =       264.60919239
  Ewald energy   TEWEN  =     -4637.17866551
  -Hartree energ DENC   =     -1535.02093737
  -exchange      EXHF   =         0.00000000
  -V(xc)+E(xc)   XCENC  =       220.37325229
  PAW double counting   =      5596.76684529    -5549.11318679
  entropy T*S    EENTRO =        -0.00144783
  eigenvalues    EBANDS =      -490.44617743
  atomic energy  EATOM  =      6107.80840369
  Solvation  Ediel_sol  =         0.00000000
  ---------------------------------------------------
  free energy    TOTEN  =       -22.20272127 eV

  energy without entropy =      -22.20127344  energy(sigma->0) =      -22.20199735


--------------------------------------------------------------------------------------------------------




--------------------------------------- Iteration      1(   9)  ---------------------------------------


    POTLOK:  cpu time      0.0333: real time      0.0333
    SETDIJ:  cpu time      0.3598: real time      0.4074
     EDDAV:  cpu time      4.1887: real time      4.2009
       DOS:  cpu time      0.0008: real time      0.0008
    CHARGE:  cpu time      0.3918: real time      0.3918
    MIXING:  cpu time      0.0011: real time      0.0011
    --------------------------------------------
      LOOP:  cpu time      4.9755: real time      5.0354

 eigenvalue-minimisations  : 12828
 total energy-change (2. order) : 0.4306242E-02  (-0.2367325E-02)
 number of electron      44.0000001 magnetization      -0.0145053
 augmentation part       16.5744589 magnetization      -0.0057506

 Broyden mixing:
  rms(total) = 0.44531E-01    rms(broyden)= 0.44521E-01
  rms(prec ) = 0.52489E-01
  weight for this iteration     100.00

 eigenvalues of (default mixing * dielectric matrix)
  average eigenvalue GAMMA=   1.1505
  2.1770  0.9299  0.7476  0.7476

 Free energy of the ion-electron system (eV)
  ---------------------------------------------------
  alpha Z        PSCENC =       264.60919239
  Ewald energy   TEWEN  =     -4637.17866551
  -Hartree energ DENC   =     -1536.01687318
  -exchange      EXHF   =         0.00000000
  -V(xc)+E(xc)   XCENC  =       220.47041277
  PAW double counting   =      5676.50836533    -5629.35135501
  entropy T*S    EENTRO =        -0.00140540
  eigenvalues    EBANDS =      -489.04649011
  atomic energy  EATOM  =      6107.80840369
  Solvation  Ediel_sol  =         0.00000000
  ---------------------------------------------------
  free energy    TOTEN  =       -22.19841503 eV

  energy without entropy =      -22.19700963  energy(sigma->0) =      -22.19771233


--------------------------------------------------------------------------------------------------------




--------------------------------------- Iteration      1(  10)  ---------------------------------------


    POTLOK:  cpu time      0.0338: real time      0.0339
    SETDIJ:  cpu time      0.4033: real time      0.4036
     EDDAV:  cpu time      4.4527: real time      4.4546
       DOS:  cpu time      0.0007: real time      0.0007
    CHARGE:  cpu time      0.3922: real time      0.3924
    MIXING:  cpu time      0.0011: real time      0.0011
    --------------------------------------------
      LOOP:  cpu time      5.2839: real time      5.2863

 eigenvalue-minimisations  : 12476
 total energy-change (2. order) :-0.1388286E-02  (-0.2573714E-03)
 number of electron      44.0000001 magnetization       0.0045771
 augmentation part       16.5681266 magnetization       0.0058292

 Broyden mixing:
  rms(total) = 0.18051E-01    rms(broyden)= 0.18050E-01
  rms(prec ) = 0.20736E-01
  weight for this iteration     100.00

 eigenvalues of (default mixing * dielectric matrix)
  average eigenvalue GAMMA=   1.1894
  2.4883  1.0335  1.0335  0.6958  0.6958

 Free energy of the ion-electron system (eV)
  ---------------------------------------------------
  alpha Z        PSCENC =       264.60919239
  Ewald energy   TEWEN  =     -4637.17866551
  -Hartree energ DENC   =     -1536.55573186
  -exchange      EXHF   =         0.00000000
  -V(xc)+E(xc)   XCENC  =       220.49010173
  PAW double counting   =      5705.33406283    -5658.21518221
  entropy T*S    EENTRO =        -0.00140983
  eigenvalues    EBANDS =      -488.49057455
  atomic energy  EATOM  =      6107.80840369
  Solvation  Ediel_sol  =         0.00000000
  ---------------------------------------------------
  free energy    TOTEN  =       -22.19980331 eV

  energy without entropy =      -22.19839348  energy(sigma->0) =      -22.19909840


--------------------------------------------------------------------------------------------------------




--------------------------------------- Iteration      1(  11)  ---------------------------------------


    POTLOK:  cpu time      0.0335: real time      0.0336
    SETDIJ:  cpu time      0.4076: real time      0.4076
     EDDAV:  cpu time      4.1803: real time      4.1816
       DOS:  cpu time      0.0008: real time      0.0008
    CHARGE:  cpu time      0.3868: real time      0.3869
    MIXING:  cpu time      0.0010: real time      0.0010
    --------------------------------------------
      LOOP:  cpu time      5.0100: real time      5.0116

 eigenvalue-minimisations  : 12884
 total energy-change (2. order) :-0.1824921E-03  (-0.3460600E-04)
 number of electron      44.0000001 magnetization       0.0032738
 augmentation part       16.5678709 magnetization       0.0033307

 Broyden mixing:
  rms(total) = 0.86255E-02    rms(broyden)= 0.86249E-02
  rms(prec ) = 0.10037E-01
  weight for this iteration     100.00

 eigenvalues of (default mixing * dielectric matrix)
  average eigenvalue GAMMA=   1.1770
  2.4609  1.3720  1.0190  0.7898  0.7898  0.6304

 Free energy of the ion-electron system (eV)
  ---------------------------------------------------
  alpha Z        PSCENC =       264.60919239
  Ewald energy   TEWEN  =     -4637.17866551
  -Hartree energ DENC   =     -1536.70212519
  -exchange      EXHF   =         0.00000000
  -V(xc)+E(xc)   XCENC  =       220.49433932
  PAW double counting   =      5714.10587096    -5666.96460524
  entropy T*S    EENTRO =        -0.00142495
  eigenvalues    EBANDS =      -488.37097129
  atomic energy  EATOM  =      6107.80840369
  Solvation  Ediel_sol  =         0.00000000
  ---------------------------------------------------
  free energy    TOTEN  =       -22.19998581 eV

  energy without entropy =      -22.19856086  energy(sigma->0) =      -22.19927333


--------------------------------------------------------------------------------------------------------




--------------------------------------- Iteration      1(  12)  ---------------------------------------


    POTLOK:  cpu time      0.0327: real time      0.0328
    SETDIJ:  cpu time      0.4070: real time      0.4072
     EDDAV:  cpu time      5.0313: real time      5.0333
       DOS:  cpu time      0.0007: real time      0.0007
    CHARGE:  cpu time      0.3995: real time      0.3999
    MIXING:  cpu time      0.0088: real time      0.0088
    --------------------------------------------
      LOOP:  cpu time      5.8801: real time      5.8827

 eigenvalue-minimisations  : 12648
 total energy-change (2. order) :-0.1015252E-04  (-0.5354165E-05)
 number of electron      44.0000001 magnetization      -0.0002572
 augmentation part       16.5681247 magnetization      -0.0005289

 Broyden mixing:
  rms(total) = 0.20231E-02    rms(broyden)= 0.20226E-02
  rms(prec ) = 0.28054E-02
  weight for this iteration     100.00

 eigenvalues of (default mixing * dielectric matrix)
  average eigenvalue GAMMA=   1.2044
  2.4880  1.7544  1.0173  1.0173  0.7631  0.7631  0.6276

 Free energy of the ion-electron system (eV)
  ---------------------------------------------------
  alpha Z        PSCENC =       264.60919239
  Ewald energy   TEWEN  =     -4637.17866551
  -Hartree energ DENC   =     -1536.78705894
  -exchange      EXHF   =         0.00000000
  -V(xc)+E(xc)   XCENC  =       220.49733426
  PAW double counting   =      5717.45328793    -5670.28676579
  entropy T*S    EENTRO =        -0.00143545
  eigenvalues    EBANDS =      -488.31428855
  atomic energy  EATOM  =      6107.80840369
  Solvation  Ediel_sol  =         0.00000000
  ---------------------------------------------------
  free energy    TOTEN  =       -22.19999596 eV

  energy without entropy =      -22.19856051  energy(sigma->0) =      -22.19927823


--------------------------------------------------------------------------------------------------------




--------------------------------------- Iteration      1(  13)  ---------------------------------------


    POTLOK:  cpu time      0.0584: real time      0.0585
    SETDIJ:  cpu time      0.4057: real time      0.4057
     EDDAV:  cpu time      5.2553: real time      5.4207
       DOS:  cpu time      0.0008: real time      0.0008
    CHARGE:  cpu time      0.4341: real time      0.4341
    MIXING:  cpu time      0.0011: real time      0.0011
    --------------------------------------------
      LOOP:  cpu time      6.1555: real time      6.3210

 eigenvalue-minimisations  : 12496
 total energy-change (2. order) :-0.9729192E-05  (-0.1205353E-05)
 number of electron      44.0000001 magnetization      -0.0002224
 augmentation part       16.5681452 magnetization      -0.0003417

 Broyden mixing:
  rms(total) = 0.84486E-03    rms(broyden)= 0.84472E-03
  rms(prec ) = 0.11696E-02
  weight for this iteration     100.00

 eigenvalues of (default mixing * dielectric matrix)
  average eigenvalue GAMMA=   1.2108
  2.5786  2.0028  1.1106  1.1106  0.7712  0.7712  0.7133  0.6276

 Free energy of the ion-electron system (eV)
  ---------------------------------------------------
  alpha Z        PSCENC =       264.60919239
  Ewald energy   TEWEN  =     -4637.17866551
  -Hartree energ DENC   =     -1536.83416692
  -exchange      EXHF   =         0.00000000
  -V(xc)+E(xc)   XCENC  =       220.49922609
  PAW double counting   =      5718.01856492    -5670.83953692
  entropy T*S    EENTRO =        -0.00143765
  eigenvalues    EBANDS =      -488.28158577
  atomic energy  EATOM  =      6107.80840369
  Solvation  Ediel_sol  =         0.00000000
  ---------------------------------------------------
  free energy    TOTEN  =       -22.20000569 eV

  energy without entropy =      -22.19856803  energy(sigma->0) =      -22.19928686


--------------------------------------------------------------------------------------------------------




--------------------------------------- Iteration      1(  14)  ---------------------------------------


    POTLOK:  cpu time      0.0422: real time      0.0422
    SETDIJ:  cpu time      0.4137: real time      0.4137
     EDDAV:  cpu time      4.0567: real time      4.3217
       DOS:  cpu time      0.0007: real time      0.0007
    CHARGE:  cpu time      0.3857: real time      0.3857
    MIXING:  cpu time      0.0012: real time      0.0012
    --------------------------------------------
      LOOP:  cpu time      4.9001: real time      5.1651

 eigenvalue-minimisations  :  9004
 total energy-change (2. order) :-0.1424716E-05  (-0.1734377E-06)
[...]
      9      -0.3599      1.00000
     10      -0.3599      1.00000
     11       0.8552      1.00000
     12       0.8552      1.00000
     13       1.3338      1.00000
     14       1.3338      1.00000
     15       4.2125      1.00000
     16       4.2125      1.00000
     17       4.4916      1.00000
     18       4.4916      1.00000
     19       5.3460      1.00000
     20       5.3460      1.00000
     21       5.7783      1.00000
     22       5.7783      1.00000
     23       7.7633      0.00000
     24       7.7633      0.00000
     25      12.5146      0.00000
     26      12.5146      0.00000
     27      18.4532      0.00000
     28      18.4532      0.00000

 k-point   101 :       0.4000    0.3000    0.5000
  band No.  band energies     occupation 
      1     -44.0339      1.00000
      2     -44.0108      1.00000
      3     -43.9147      1.00000
      4     -43.9136      1.00000
      5     -43.1823      1.00000
      6     -43.1648      1.00000
      7     -12.6074      1.00000
      8     -12.4271      1.00000
      9      -0.2063      1.00000
     10      -0.2030      1.00000
     11       0.3173      1.00000
     12       0.9321      1.00000
     13       1.1121      1.00000
     14       1.5767      1.00000
     15       4.0372      1.00000
     16       4.1188      1.00000
     17       4.6115      1.00000
     18       4.6831      1.00000
     19       5.1237      1.00000
     20       5.2646      1.00000
     21       5.9286      1.00000
     22       6.3944      1.00000
     23       7.7547      0.00000
     24       7.9198      0.00000
     25      12.0669      0.00000
     26      12.8234      0.00000
     27      17.2816      0.00000
     28      18.0276      0.00000

 k-point   102 :       0.5000    0.3000    0.5000
  band No.  band energies     occupation 
      1     -44.0420      1.00000
      2     -44.0101      1.00000
      3     -43.9142      1.00000
      4     -43.9126      1.00000
      5     -43.1883      1.00000
      6     -43.1642      1.00000
      7     -12.6230      1.00000
      8     -12.3725      1.00000
      9      -0.1423      1.00000
     10      -0.0421      1.00000
     11       0.1039      1.00000
     12       0.6820      1.00000
     13       1.2028      1.00000
     14       1.7045      1.00000
     15       3.9658      1.00000
     16       4.0509      1.00000
     17       4.7828      1.00000
     18       4.8203      1.00000
     19       4.8938      1.00000
     20       5.1518      1.00000
     21       5.9928      1.00000
     22       6.6660      1.00000
     23       7.8885      0.00000
     24       7.9672      0.00000
     25      11.7608      0.00000
     26      12.9687      0.00000
     27      16.8327      0.00000
     28      17.7061      0.00000

 k-point   103 :       0.4000    0.4000    0.5000
  band No.  band energies     occupation 
      1     -44.0318      1.00000
      2     -44.0318      1.00000
      3     -43.9122      1.00000
      4     -43.9122      1.00000
      5     -43.1807      1.00000
      6     -43.1807      1.00000
      7     -12.4720      1.00000
      8     -12.4720      1.00000
      9       0.0180      1.00000
     10       0.0180      1.00000
     11       0.5471      1.00000
     12       0.5471      1.00000
     13       1.0432      1.00000
     14       1.0432      1.00000
     15       3.9578      1.00000
     16       3.9578      1.00000
     17       4.8326      1.00000
     18       4.8326      1.00000
     19       5.2461      1.00000
     20       5.2461      1.00000
     21       6.4955      1.00000
     22       6.4955      1.00000
     23       7.7370      0.00000
     24       7.7370      0.00000
     25      12.3091      0.00000
     26      12.3091      0.00000
     27      18.3460      0.00000
     28      18.3460      0.00000

 k-point   104 :       0.5000    0.4000    0.5000
  band No.  band energies     occupation 
      1     -44.0398      1.00000
      2     -44.0310      1.00000
      3     -43.9117      1.00000
      4     -43.9113      1.00000
      5     -43.1867      1.00000
      6     -43.1801      1.00000
      7     -12.4892      1.00000
      8     -12.4192      1.00000
      9       0.0956      1.00000
     10       0.3318      1.00000
     11       0.3400      1.00000
     12       0.5467      1.00000
     13       0.7005      1.00000
     14       1.1098      1.00000
     15       3.8936      1.00000
     16       3.8943      1.00000
     17       4.9269      1.00000
     18       4.9436      1.00000
     19       5.1672      1.00000
     20       5.2780      1.00000
     21       6.5433      1.00000
     22       6.7931      0.96851
     23       7.7097      0.00000
     24       7.7177      0.00000
     25      12.0295      0.00000
     26      12.4165      0.00000
     27      18.0037      0.00000
     28      18.4182      0.00000

 k-point   105 :       0.5000    0.5000    0.5000
  band No.  band energies     occupation 
      1     -44.0390      1.00000
      2     -44.0390      1.00000
      3     -43.9108      1.00000
      4     -43.9108      1.00000
      5     -43.1861      1.00000
      6     -43.1861      1.00000
      7     -12.4369      1.00000
      8     -12.4369      1.00000
      9       0.4391      1.00000
     10       0.4391      1.00000
     11       0.4971      1.00000
     12       0.4971      1.00000
     13       0.5675      1.00000
     14       0.5675      1.00000
     15       3.8320      1.00000
     16       3.8320      1.00000
     17       4.9621      1.00000
     18       4.9621      1.00000
     19       5.3289      1.00000
     20       5.3289      1.00000
     21       6.8375      0.72680
     22       6.8375      0.72680
     23       7.6286      0.00000
     24       7.6286      0.00000
     25      12.1443      0.00000
     26      12.1443      0.00000
     27      18.5669      0.00000
     28      18.5693      0.00000


--------------------------------------------------------------------------------------------------------


 soft charge-density along one line, spin component            1
         0         1         2         3         4         5         6         7         8         9
 total charge-density along one line
 
 soft charge-density along one line, spin component            2
         0         1         2         3         4         5         6         7         8         9
 total charge-density along one line
 
 pseudopotential strength for first ion, spin component:            1
-38.792  -0.000  -0.000   9.103   0.000   0.000   0.000  -0.000
 -0.000 -39.201  -0.000   0.000   9.335   0.000   0.000  -0.000
 -0.000  -0.000 -39.227   0.000   0.000   9.353   0.000   0.000
  9.103   0.000   0.000   7.645  -0.000  -0.000  -0.000   0.000
  0.000   9.335   0.000  -0.000   7.591  -0.000  -0.000   0.000
  0.000   0.000   9.353  -0.000  -0.000   7.589  -0.000  -0.000
  0.000   0.000   0.000  -0.000  -0.000  -0.000  -3.752  -0.000
 -0.000  -0.000   0.000   0.000   0.000  -0.000  -0.000  -3.731
  0.000  -0.000  -0.000  -0.000   0.000   0.000   0.000   0.000
  0.000   0.000  -0.000  -0.000  -0.000   0.000  -0.000   0.000
  0.000  -0.000   0.000  -0.000   0.000  -0.000  -0.000   0.000
  0.000   0.000   0.000  -0.000  -0.000  -0.000  -3.563  -0.000
 -0.000  -0.000   0.000   0.000   0.000  -0.000  -0.000  -3.540
  0.000  -0.000  -0.000  -0.000   0.000   0.000   0.000   0.000
  0.000   0.000  -0.000  -0.000  -0.000   0.000  -0.000   0.000
  0.000  -0.000   0.000  -0.000   0.000  -0.000  -0.000   0.000
  0.000   0.000  -0.000   0.000   0.000  -0.000   0.000   0.000
  0.000   0.000  -0.000   0.000   0.000  -0.000   0.000   0.000
 pseudopotential strength for first ion, spin component:            2
-38.792  -0.000  -0.000   9.103   0.000   0.000   0.000  -0.000
 -0.000 -39.201  -0.000   0.000   9.335   0.000   0.000  -0.000
 -0.000  -0.000 -39.227   0.000   0.000   9.353   0.000   0.000
  9.103   0.000   0.000   7.645  -0.000  -0.000  -0.000   0.000
  0.000   9.335   0.000  -0.000   7.591  -0.000  -0.000   0.000
  0.000   0.000   9.353  -0.000  -0.000   7.589  -0.000  -0.000
  0.000   0.000   0.000  -0.000  -0.000  -0.000  -3.752  -0.000
 -0.000  -0.000   0.000   0.000   0.000  -0.000  -0.000  -3.731
  0.000  -0.000  -0.000  -0.000   0.000   0.000   0.000   0.000
  0.000   0.000  -0.000  -0.000  -0.000   0.000  -0.000   0.000
  0.000  -0.000   0.000  -0.000   0.000  -0.000  -0.000   0.000
  0.000   0.000   0.000  -0.000  -0.000  -0.000  -3.563  -0.000
 -0.000  -0.000   0.000   0.000   0.000  -0.000  -0.000  -3.540
  0.000  -0.000  -0.000  -0.000   0.000   0.000   0.000   0.000
  0.000   0.000  -0.000  -0.000  -0.000   0.000  -0.000   0.000
  0.000  -0.000   0.000  -0.000   0.000  -0.000  -0.000   0.000
  0.000   0.000  -0.000   0.000   0.000  -0.000   0.000   0.000
  0.000   0.000  -0.000   0.000   0.000  -0.000   0.000   0.000
 total augmentation occupancy for first ion, spin component:            1
  1.998   0.000   0.000  -0.011  -0.000  -0.000   0.000   0.000   0.000   0.000   0.000   0.000   0.000   0.000   0.000   0.000
  0.000   1.998   0.000  -0.000  -0.020  -0.000   0.000   0.000   0.000   0.000   0.000   0.000   0.000   0.000   0.000   0.000
  0.000   0.000   1.998  -0.000  -0.000  -0.021   0.000   0.000   0.000   0.000   0.000   0.000   0.000   0.000   0.000   0.000
 -0.011  -0.000  -0.000   0.045   0.000   0.000   0.000   0.000   0.000   0.000   0.000   0.000   0.000   0.000   0.000   0.000
 -0.000  -0.020  -0.000   0.000   0.134   0.000   0.000   0.000   0.000   0.000   0.000   0.000   0.000   0.000   0.000   0.000
 -0.000  -0.000  -0.021   0.000   0.000   0.159   0.000   0.000   0.000   0.000   0.000   0.000   0.000   0.000   0.000   0.000
  0.000   0.000   0.000   0.000   0.000   0.000   2.216   0.000  -0.000   0.000  -0.000  -0.322  -0.000   0.000  -0.000   0.000
  0.000   0.000   0.000   0.000   0.000   0.000   0.000   2.150   0.000   0.000  -0.000  -0.000  -0.277   0.000  -0.000   0.000
  0.000   0.000   0.000   0.000   0.000   0.000  -0.000   0.000   2.377   0.000   0.168   0.000   0.000  -0.546  -0.000  -0.115
  0.000   0.000   0.000   0.000   0.000   0.000   0.000   0.000   0.000   4.853   0.000  -0.000  -0.000  -0.000  -2.783  -0.000
  0.000   0.000   0.000   0.000   0.000   0.000  -0.000  -0.000   0.168   0.000   3.104   0.000   0.000  -0.110  -0.000  -1.168
  0.000   0.000   0.000   0.000   0.000   0.000  -0.322  -0.000   0.000  -0.000   0.000   0.374   0.000  -0.000   0.000  -0.000
  0.000   0.000   0.000   0.000   0.000   0.000  -0.000  -0.277   0.000  -0.000   0.000   0.000   0.371   0.000   0.000  -0.000
  0.000   0.000   0.000   0.000   0.000   0.000   0.000   0.000  -0.546  -0.000  -0.110  -0.000   0.000   0.670   0.000  -0.018
  0.000   0.000   0.000   0.000   0.000   0.000  -0.000  -0.000  -0.000  -2.783  -0.000   0.000   0.000   0.000   1.858   0.000
  0.000   0.000   0.000   0.000   0.000   0.000   0.000   0.000  -0.115  -0.000  -1.168  -0.000  -0.000  -0.018   0.000   1.088
  0.000   0.000   0.000   0.000   0.000   0.000  -0.000  -0.000   0.071   0.000   0.421   0.000   0.000  -0.272  -0.000  -0.848
  0.000   0.000   0.000   0.000   0.000   0.000  -0.000  -0.000   0.022  -0.000  -0.002  -0.000  -0.000   0.023   0.000   0.090
 total augmentation occupancy for first ion, spin component:            2
 -0.000  -0.000  -0.000  -0.000  -0.000  -0.000   0.000   0.000   0.000   0.000   0.000   0.000   0.000   0.000   0.000   0.000
 -0.000  -0.000  -0.000  -0.000  -0.000  -0.000   0.000   0.000   0.000   0.000   0.000   0.000   0.000   0.000   0.000   0.000
 -0.000  -0.000  -0.000  -0.000  -0.000  -0.000   0.000   0.000   0.000   0.000   0.000   0.000   0.000   0.000   0.000   0.000
 -0.000  -0.000  -0.000  -0.000  -0.000  -0.000   0.000   0.000   0.000   0.000   0.000   0.000   0.000   0.000   0.000   0.000
 -0.000  -0.000  -0.000  -0.000   0.000   0.000   0.000   0.000   0.000   0.000   0.000   0.000   0.000   0.000   0.000   0.000
 -0.000  -0.000  -0.000  -0.000   0.000   0.000   0.000   0.000   0.000   0.000   0.000   0.000   0.000   0.000   0.000   0.000
  0.000   0.000   0.000   0.000   0.000   0.000  -0.000  -0.000   0.000  -0.000  -0.000   0.000   0.000  -0.000   0.000  -0.000
  0.000   0.000   0.000   0.000   0.000   0.000  -0.000  -0.000  -0.000  -0.000   0.000   0.000   0.000   0.000   0.000  -0.000
  0.000   0.000   0.000   0.000   0.000   0.000   0.000  -0.000   0.000   0.000  -0.000  -0.000   0.000  -0.000  -0.000   0.000
  0.000   0.000   0.000   0.000   0.000   0.000  -0.000  -0.000   0.000   0.000  -0.000   0.000   0.000  -0.000  -0.000   0.000
  0.000   0.000   0.000   0.000   0.000   0.000  -0.000   0.000  -0.000  -0.000  -0.000  -0.000  -0.000   0.000   0.000   0.000
  0.000   0.000   0.000   0.000   0.000   0.000   0.000   0.000  -0.000   0.000  -0.000   0.000   0.000  -0.000   0.000   0.000
  0.000   0.000   0.000   0.000   0.000   0.000   0.000   0.000   0.000   0.000  -0.000   0.000   0.000   0.000   0.000  -0.000
  0.000   0.000   0.000   0.000   0.000   0.000  -0.000   0.000  -0.000  -0.000   0.000  -0.000   0.000   0.000   0.000  -0.000
  0.000   0.000   0.000   0.000   0.000   0.000   0.000   0.000  -0.000  -0.000   0.000   0.000   0.000   0.000   0.000   0.000
  0.000   0.000   0.000   0.000   0.000   0.000  -0.000  -0.000   0.000   0.000   0.000   0.000  -0.000  -0.000   0.000   0.000
  0.000   0.000   0.000   0.000   0.000   0.000  -0.000  -0.000   0.000   0.000   0.000  -0.000  -0.000   0.000   0.000   0.000
  0.000   0.000   0.000   0.000   0.000   0.000   0.000   0.000  -0.000  -0.000  -0.000   0.000   0.000  -0.000  -0.000  -0.000


------------------------ aborting loop because EDIFF is reached ----------------------------------------





 total charge

# of ion       s       p       d       tot
------------------------------------------
    1        0.300   6.191   7.924  14.414
    2        0.300   6.191   7.924  14.414
    3        1.562   3.390   0.000   4.953
    4        1.562   3.390   0.000   4.953
--------------------------------------------------
tot          3.724  19.163  15.848  38.734



 magnetization (x)

# of ion       s       p       d       tot
------------------------------------------
    1       -0.000  -0.000   0.000   0.000
    2       -0.000  -0.000   0.000   0.000
    3        0.000   0.000   0.000   0.000
    4        0.000   0.000   0.000   0.000
--------------------------------------------------
tot          0.000   0.000   0.000   0.000
 
    CHARGE:  cpu time      0.3937: real time      0.3938
    FORLOC:  cpu time      0.0009: real time      0.0009
    FORNL :  cpu time      0.6191: real time      0.6191
    FORCOR:  cpu time      0.4379: real time      0.4380
    FORHAR:  cpu time      0.0038: real time      0.0038
    MIXING:  cpu time      0.0011: real time      0.0011
    OFIELD:  cpu time      0.0000: real time      0.0000

 ---------------------------------------------------------------------------------------------

         DFTD3 V3.0 Rev 1        
 DF pbe       
 parameters
 k1-k3        =   16.0000    1.3333   -4.0000
 Edisp (eV)   -1.24372

 E6    (eV) :    -0.7446
 E8    (eV) :    -0.4991
 % E8        : 40.13
    FORVDW:  cpu time      0.0082: real time      0.0082

 VOLUME and BASIS-vectors are now :
 -----------------------------------------------------------------------------
  energy-cutoff  :      520.00
  volume of cell :       50.08
      direct lattice vectors                 reciprocal lattice vectors
     3.053604110  0.000000000  0.000000000     0.327481875 -0.000000000  0.000000000
     0.000000000  3.053604110  0.000000000     0.000000000  0.327481875  0.000000000
     0.000000000  0.000000000  5.371256790    -0.000000000 -0.000000000  0.186176167

  length of vectors
     3.053604110  3.053604110  5.371256790     0.327481875  0.327481875  0.186176167


 FORCES acting on ions
    electron-ion (+dipol)            ewald-force                    non-local-force                 convergence-correction
 -----------------------------------------------------------------------------------------------
   0.647E-12 -.214E-14 -.687E-11   0.739E-14 -.375E-14 0.568E-13   -.301E-25 0.000E+00 0.000E+00   0.573E-13 -.516E-13 0.273E-12
   0.214E-14 0.620E-12 -.207E-12   0.256E-14 0.123E-13 -.568E-13   -.265E-25 0.000E+00 0.000E+00   -.161E-13 -.294E-13 -.674E-13
   -.911E-13 -.707E-12 -.186E-11   0.312E-15 0.187E-13 0.119E-12   -.110E-17 -.694E-17 -.555E-16   -.456E-13 -.209E-15 0.486E-13
   0.652E-13 0.670E-12 0.197E-11   -.648E-14 -.261E-13 -.119E-12   0.522E-18 0.694E-17 0.555E-16   0.209E-13 -.186E-13 -.166E-13
 -----------------------------------------------------------------------------------------------
   0.623E-12 0.581E-12 -.697E-11   0.379E-14 0.117E-14 0.128E-18   -.580E-18 0.000E+00 0.000E+00   0.165E-13 -.998E-13 0.238E-12
 
 
 POSITION                                       TOTAL-FORCE (eV/Angst)
 -----------------------------------------------------------------------------------
      1.52680      0.00000      2.68563        -0.000000      0.000000      0.000000
      0.00000      1.52680      0.00000         0.000000      0.000000      0.000000
      0.00000      0.00000      4.02844        -0.000000      0.000000     -0.000000
      0.00000      0.00000      1.34281         0.000000      0.000000     -0.000000
 -----------------------------------------------------------------------------------
    total drift:                                0.000000      0.000000     -0.000000


--------------------------------------------------------------------------------------------------------



  FREE ENERGIE OF THE ION-ELECTRON SYSTEM (eV)
  ---------------------------------------------------
  free  energy   TOTEN  =       -23.44373097 eV

  energy  without entropy=      -23.44229411  energy(sigma->0) =      -23.44301254
 


--------------------------------------------------------------------------------------------------------


    POTLOK:  cpu time      0.4410: real time      0.4410


--------------------------------------------------------------------------------------------------------


     LOOP+:  cpu time     78.3016: real time     79.7209
    4ORBIT:  cpu time      0.0000: real time      0.0000



 total charge

# of ion       s       p       d       tot
------------------------------------------
    1        0.300   6.191   7.924  14.414
    2        0.300   6.191   7.924  14.414
    3        1.562   3.390   0.000   4.953
    4        1.562   3.390   0.000   4.953
--------------------------------------------------
tot          3.724  19.163  15.848  38.734



 magnetization (x)

# of ion       s       p       d       tot
------------------------------------------
    1       -0.000  -0.000   0.000   0.000
    2       -0.000  -0.000   0.000   0.000
    3        0.000   0.000   0.000   0.000
    4        0.000   0.000   0.000   0.000
--------------------------------------------------
tot          0.000   0.000   0.000   0.000
 

 total amount of memory used by VASP MPI-rank0   117710. kBytes
=======================================================================

   base      :      30000. kBytes
   nonl-proj :      41577. kBytes
   fftplans  :       6896. kBytes
   grid      :       5621. kBytes
   one-center:        124. kBytes
   wavefun   :      33492. kBytes
 
  
  
 General timing and accounting informations for this job:
 ========================================================
  
                  Total CPU time used (sec):       80.215
                            User time (sec):       77.612
                          System time (sec):        2.603
                         Elapsed time (sec):       82.126
  
                   Maximum memory used (kb):      399604.
                   Average memory used (kb):          N/A
  
                          Minor page faults:       518673
                          Major page faults:            8
                 Voluntary context switches:          262
