       N       E                     dE             d eps       ncg     rms          rms(c)
DAV:   1     0.580799521226E+03    0.58080E+03   -0.34496E+04  2736   0.171E+03
DAV:   2    -0.847475302974E+01   -0.58927E+03   -0.56838E+03  2992   0.488E+02
DAV:   3    -0.405924194992E+02   -0.32118E+02   -0.31788E+02  2824   0.118E+02
DAV:   4    -0.409965892889E+02   -0.40417E+00   -0.40357E+00  2908   0.143E+01
DAV:   5    -0.410010762016E+02   -0.44869E-02   -0.44866E-02  2740   0.151E+00    0.282E+01
DAV:   6    -0.356615381531E+02    0.53395E+01   -0.51713E+01  2768   0.653E+01    0.154E+01
DAV:   7    -0.322109732655E+02    0.34506E+01   -0.14025E+01  2704   0.351E+01    0.533E+00
DAV:   8    -0.321758785139E+02    0.35095E-01   -0.12486E+00  2740   0.640E+00    0.292E+00
DAV:   9    -0.321602038655E+02    0.15675E-01   -0.10628E-01  2812   0.268E+00    0.864E-01
DAV:  10    -0.321576882204E+02    0.25156E-02   -0.18977E-02  2748   0.128E+00    0.324E-01
DAV:  11    -0.321583689910E+02   -0.68077E-03   -0.14806E-03  2760   0.279E-01    0.131E-01
DAV:  12    -0.321583384745E+02    0.30517E-04   -0.37275E-04  2776   0.153E-01    0.450E-02
DAV:  13    -0.321583518445E+02   -0.13370E-04   -0.93851E-05  2772   0.602E-02    0.156E-02
DAV:  14    -0.321583534580E+02   -0.16135E-05   -0.38213E-06  2352   0.146E-02    0.645E-03
DAV:  15    -0.321583531983E+02    0.25970E-06   -0.15253E-06  1744   0.924E-03
   1 F= -.33572373E+02 E0= -.33568838E+02  d E =-.706869E-02  mag=    -0.0024
