 vasp.6.4.3 19Mar24 (build Nov 27 2025 15:18:09) complex                         
 executed on              LinuxNV date 2026.06.04  16:46:42
 running    4 mpi-ranks, with    1 threads/rank, on    1 nodes
 distrk:  each k-point on    4 cores,    1 groups
 distr:  one band on NCORE=   1 cores,    4 groups
 OpenACC runtime initialized ...    0 GPUs detected


--------------------------------------------------------------------------------------------------------


 INCAR:
   SYSTEM = pddmc
   ENCUT = 520
   PREC = Accurate
   LASPH = .TRUE.
   ADDGRID = .TRUE.
   ISPIN = 2
   IVDW = 12
   EDIFF = 1e-06
   NELM = 200
   NELMIN = 5
   ALGO = Normal
   NCORE = 1
   LREAL = .FALSE.
   LWAVE = .FALSE.
   LCHARG = .FALSE.
   LORBIT = 11
   ISYM = 2
   IBRION = -1
   NSW = 0
   ISIF = 0
   ISMEAR = 0
   SIGMA = 0.05
   EDIFFG = -0.01

 POTCAR:    PAW_PBE Pd_pv 28Jan2005               
 POTCAR:    PAW_PBE O 08Apr2002                   
 -----------------------------------------------------------------------------
|                                                                             |
|           W    W    AA    RRRRR   N    N  II  N    N   GGGG   !!!           |
|           W    W   A  A   R    R  NN   N  II  NN   N  G    G  !!!           |
|           W    W  A    A  R    R  N N  N  II  N N  N  G       !!!           |
|           W WW W  AAAAAA  RRRRR   N  N N  II  N  N N  G  GGG   !            |
|           WW  WW  A    A  R   R   N   NN  II  N   NN  G    G                |
|           W    W  A    A  R    R  N    N  II  N    N   GGGG   !!!           |
|                                                                             |
|     You use a magnetic or noncollinear calculation, but did not specify     |
|     the initial magnetic moment with the MAGMOM tag. Note that a            |
|     default of 1 will be used for all atoms. This ferromagnetic setup       |
|     may break the symmetry of the crystal, in particular it may rule        |
|     out finding an antiferromagnetic solution. Thence, we recommend         |
|     setting the initial magnetic moment manually or verifying carefully     |
|     that this magnetic setup is desired.                                    |
|                                                                             |
 -----------------------------------------------------------------------------

 POTCAR:    PAW_PBE Pd_pv 28Jan2005               
   SHA256 =  3ce661545bbde58da9a95410dea32907db2844916708bcd35bbe03ee66324d7f Pd_pv/POTCAR          
   COPYR  = (c) Copyright 28Jan2005 Georg Kresse                                                    
   COPYR  = This file is part of the software VASP. Any use, copying, and all other rights are regul
   COPYR  = If you do not have a valid VASP license, you may not use, copy or distribute this file. 
   VRHFIN =Pd: 4p5s4d                                                                               
   LEXCH  = PE                                                                                      
   EATOM  =  2621.5550 eV,  192.6789 Ry                                                             
                                                                                                    
   TITEL  = PAW_PBE Pd_pv 28Jan2005                                                                 
   LULTRA =        F    use ultrasoft PP ?                                                          
   IUNSCR =        1    unscreen: 0-lin 1-nonlin 2-no                                               
   RPACOR =    2.250    partial core radius                                                         
   POMASS =  106.420; ZVAL   =   16.000    mass and valenz                                          
   RCORE  =    2.400    outmost cutoff radius                                                       
   RWIGS  =    2.300; RWIGS  =    1.217    wigner-seitz radius (au A)                               
   ENMAX  =  250.925; ENMIN  =  188.194 eV                                                          
   ICORE  =        3    local potential                                                             
   LCOR   =        T    correct aug charges                                                         
   LPAW   =        T    paw PP                                                                      
   EAUG   =  473.067                                                                                
   DEXC   =    0.000                                                                                
   RMAX   =    2.449    core radius for proj-oper                                                   
   RAUG   =    1.300    factor for augmentation sphere                                              
   RDEP   =    2.405    radius for radial grids                                                     
   RDEPT  =    1.966    core radius for aug-charge                                                  
                                                                                                    
   Atomic configuration                                                                             
   11 entries                                                                                       
     n  l   j            E        occ.                                                              
     1  0  0.50    -24164.6632   2.0000                                                             
     2  0  0.50     -3530.9218   2.0000                                                             
     2  1  1.50     -3165.6822   6.0000                                                             
     3  0  0.50      -639.4578   2.0000                                                             
     3  1  1.50      -519.4532   6.0000                                                             
     3  2  2.50      -328.9758  10.0000                                                             
     4  0  0.50       -88.7014   2.0000                                                             
     4  1  1.50       -54.4541   6.0000                                                             
     4  2  2.50        -6.6878   9.0000                                                             
     5  0  0.50        -4.3543   1.0000                                                             
     4  3  2.50        -1.3606   0.0000                                                             
   Description                                                                                      
     l       E           TYP  RCUT    TYP  RCUT                                                     
     1    -54.4540524     23  2.100                                                                 
     1      4.0817478     23  2.100                                                                 
     2     -6.6878326     23  2.400                                                                 
     2     -4.0817478     23  2.400                                                                 
     0     -4.3542962     23  2.400                                                                 
     0     13.6058260     23  2.400                                                                 
     3     -5.4423304     23  2.400                                                                 
  local pseudopotential read in
  partial core-charges read in
  partial kinetic energy density read in
  atomic valenz-charges read in
  non local Contribution for L=            1  read in
    real space projection operators read in
  non local Contribution for L=            1  read in
    real space projection operators read in
  non local Contribution for L=            2  read in
    real space projection operators read in
  non local Contribution for L=            2  read in
    real space projection operators read in
  non local Contribution for L=            0  read in
    real space projection operators read in
  non local Contribution for L=            0  read in
    real space projection operators read in
    PAW grid and wavefunctions read in
 
   number of l-projection  operators is LMAX  =            6
   number of lm-projection operators is LMMAX =           18
 
 POTCAR:    PAW_PBE O 08Apr2002                   
   SHA256 =  818f92134a0a090dccd8ba1447fa70422a3b330e708bb4f08108d8ae51209ddf O/POTCAR              
   COPYR  = (c) Copyright 08Apr2002 Georg Kresse                                                    
   COPYR  = This file is part of the software VASP. Any use, copying, and all other rights are regul
   COPYR  = If you do not have a valid VASP license, you may not use, copy or distribute this file. 
   VRHFIN =O: s2p4                                                                                  
   LEXCH  = PE                                                                                      
   EATOM  =   432.3788 eV,   31.7789 Ry                                                             
                                                                                                    
   TITEL  = PAW_PBE O 08Apr2002                                                                     
   LULTRA =        F    use ultrasoft PP ?                                                          
   IUNSCR =        1    unscreen: 0-lin 1-nonlin 2-no                                               
   RPACOR =    1.200    partial core radius                                                         
   POMASS =   16.000; ZVAL   =    6.000    mass and valenz                                          
   RCORE  =    1.520    outmost cutoff radius                                                       
   RWIGS  =    1.550; RWIGS  =    0.820    wigner-seitz radius (au A)                               
   ENMAX  =  400.000; ENMIN  =  300.000 eV                                                          
   ICORE  =        2    local potential                                                             
   LCOR   =        T    correct aug charges                                                         
   LPAW   =        T    paw PP                                                                      
   EAUG   =  605.392                                                                                
   DEXC   =    0.000                                                                                
   RMAX   =    1.553    core radius for proj-oper                                                   
   RAUG   =    1.300    factor for augmentation sphere                                              
   RDEP   =    1.550    radius for radial grids                                                     
   RDEPT  =    1.329    core radius for aug-charge                                                  
                                                                                                    
   Atomic configuration                                                                             
    4 entries                                                                                       
     n  l   j            E        occ.                                                              
     1  0  0.50      -514.6923   2.0000                                                             
     2  0  0.50       -23.9615   2.0000                                                             
     2  1  0.50        -9.0305   4.0000                                                             
     3  2  1.50        -9.5241   0.0000                                                             
   Description                                                                                      
     l       E           TYP  RCUT    TYP  RCUT                                                     
     0    -23.9615318     23  1.200                                                                 
     0     -9.5240782     23  1.200                                                                 
     1     -9.0304911     23  1.520                                                                 
     1      8.1634956     23  1.520                                                                 
     2     -9.5240782      7  1.500                                                                 
  local pseudopotential read in
  partial core-charges read in
  partial kinetic energy density read in
  kinetic energy density of atom read in
  atomic valenz-charges read in
  non local Contribution for L=            0  read in
    real space projection operators read in
  non local Contribution for L=            0  read in
    real space projection operators read in
  non local Contribution for L=            1  read in
    real space projection operators read in
  non local Contribution for L=            1  read in
    real space projection operators read in
    PAW grid and wavefunctions read in
 
   number of l-projection  operators is LMAX  =            4
   number of lm-projection operators is LMMAX =            8
 
  PAW_PBE Pd_pv 28Jan2005               :
 energy of atom  1       EATOM=-2621.5550
 kinetic energy error for atom=    0.0088 (will be added to EATOM!!)
  PAW_PBE O 08Apr2002                   :
 energy of atom  2       EATOM= -432.3788
 kinetic energy error for atom=    0.0208 (will be added to EATOM!!)
 
 
 POSCAR: Pd O
  positions in cartesian coordinates
  No initial velocities read in
 IVDW         = 12
 VDW_S6       =    1.0000
 VDW_S8       =    0.7875
 VDW_A1       =    0.4289
 VDW_A2       =    4.4407
 VDW_RADIUS   =   50.2022 A
 VDW_CNRADIUS =   21.1671 A


 exchange-correlation table for PE
   RHO(1)=    0.500       N(1)  =     2000
   RHO(2)=  100.500       N(2)  =     4000
 


--------------------------------------------------------------------------------------------------------


 ion  position               nearest neighbor table
   1  0.500  0.500  0.500-   3 1.97   4 1.97   5 2.00   6 2.00   5 2.00   6 2.00
   2  0.000  0.000  0.000-   5 1.97   6 1.97   3 2.00   4 2.00   3 2.00   4 2.00
   3  0.808  0.192  0.500-   1 1.97   2 2.00   2 2.00
   4  0.192  0.808  0.500-   1 1.97   2 2.00   2 2.00
   5  0.308  0.308  0.000-   2 1.97   1 2.00   1 2.00
   6  0.692  0.692  0.000-   2 1.97   1 2.00   1 2.00
 
  LATTYP: Found a simple tetragonal cell.
 ALAT       =     4.5222304600
 C/A-ratio  =     0.6957349162
  
  Lattice vectors:
  
 A1 = (   4.5222304600,   0.0000000000,   0.0000000000)
 A2 = (   0.0000000000,   4.5222304600,   0.0000000000)
 A3 = (   0.0000000000,   0.0000000000,   3.1462736300)


Analysis of symmetry for initial positions (statically):
=====================================================================
 Subroutine PRICEL returns:
 Original cell was already a primitive cell.
 

 Routine SETGRP: Setting up the symmetry group for a 
 simple tetragonal supercell.


 Subroutine GETGRP returns: Found 16 space group operations
 (whereof  8 operations were pure point group operations)
 out of a pool of 16 trial point group operations.


The static configuration has the point symmetry D_2h.
 The point group associated with its full space group is D_4h.


Analysis of symmetry for dynamics (positions and initial velocities):
=====================================================================
 Subroutine PRICEL returns:
 Original cell was already a primitive cell.
 

 Routine SETGRP: Setting up the symmetry group for a 
 simple tetragonal supercell.


 Subroutine GETGRP returns: Found 16 space group operations
 (whereof  8 operations were pure point group operations)
 out of a pool of 16 trial point group operations.


The dynamic configuration has the point symmetry D_2h.
 The point group associated with its full space group is D_4h.


Analysis of structural, dynamic, and magnetic symmetry:
=====================================================================
 Subroutine PRICEL returns:
 Original cell was already a primitive cell.
 

 Routine SETGRP: Setting up the symmetry group for a 
 simple tetragonal supercell.


 Subroutine GETGRP returns: Found 16 space group operations
 (whereof  8 operations were pure point group operations)
 out of a pool of 16 trial point group operations.


The overall configuration has the point symmetry D_2h.
 The point group associated with its full space group is D_4h.


 Subroutine INISYM returns: Found 16 space group operations
 (whereof  8 operations are pure point group operations),
 and found     1 'primitive' translations


----------------------------------------------------------------------------------------

                                     Primitive cell                                     

  volume of cell :      64.3431

  direct lattice vectors                    reciprocal lattice vectors
     4.522230460  0.000000000  0.000000000     0.221129818 -0.000000000  0.000000000
     0.000000000  4.522230460  0.000000000     0.000000000  0.221129818  0.000000000
     0.000000000  0.000000000  3.146273630    -0.000000000 -0.000000000  0.317836310

  length of vectors
     4.522230460  4.522230460  3.146273630     0.221129818  0.221129818  0.317836310

  position of ions in fractional coordinates (direct lattice)
     0.500000000  0.500000000  0.500000000
     0.000000000  0.000000000  0.000000000
     0.808151920  0.191848080  0.500000000
     0.191848080  0.808151920  0.500000000
     0.308151920  0.308151920  1.000000000
     0.691848080  0.691848080  1.000000000

  ion indices of the primitive-cell ions
   primitive index   ion index
                 1           1
                 2           2
                 3           3
                 4           4
                 5           5
                 6           6

----------------------------------------------------------------------------------------

 
 
 KPOINTS: Automatic mesh                          

Automatic generation of k-mesh.
 Grid dimensions read from file:
 generate k-points for:    4    4    4

 Generating k-lattice:

  Cartesian coordinates                     Fractional coordinates (reciprocal lattice)
     0.055282455 -0.000000000  0.000000000     0.250000000 -0.000000000  0.000000000
     0.000000000  0.055282455  0.000000000     0.000000000  0.250000000  0.000000000
    -0.000000000 -0.000000000  0.079459077     0.000000000 -0.000000000  0.250000000

  Length of vectors
     0.055282455  0.055282455  0.079459077

  Shift w.r.t. Gamma in fractional coordinates (k-lattice)
     0.000000000  0.000000000  0.000000000

 
 Subroutine IBZKPT returns following result:
 ===========================================
 
 Found     18 irreducible k-points:
 
 Following reciprocal coordinates:
            Coordinates               Weight
  0.000000  0.000000  0.000000      1.000000
  0.250000  0.000000  0.000000      4.000000
  0.500000  0.000000  0.000000      2.000000
  0.250000  0.250000  0.000000      4.000000
  0.500000  0.250000  0.000000      4.000000
  0.500000  0.500000  0.000000      1.000000
  0.000000  0.000000  0.250000      2.000000
  0.250000  0.000000  0.250000      8.000000
  0.500000  0.000000  0.250000      4.000000
  0.250000  0.250000  0.250000      8.000000
  0.500000  0.250000  0.250000      8.000000
  0.500000  0.500000  0.250000      2.000000
  0.000000  0.000000  0.500000      1.000000
  0.250000  0.000000  0.500000      4.000000
  0.500000  0.000000  0.500000      2.000000
  0.250000  0.250000  0.500000      4.000000
  0.500000  0.250000  0.500000      4.000000
  0.500000  0.500000  0.500000      1.000000
 
 Following cartesian coordinates:
            Coordinates               Weight
  0.000000  0.000000  0.000000      1.000000
  0.055282  0.000000  0.000000      4.000000
  0.110565  0.000000  0.000000      2.000000
  0.055282  0.055282  0.000000      4.000000
  0.110565  0.055282  0.000000      4.000000
  0.110565  0.110565  0.000000      1.000000
  0.000000  0.000000  0.079459      2.000000
  0.055282  0.000000  0.079459      8.000000
  0.110565  0.000000  0.079459      4.000000
  0.055282  0.055282  0.079459      8.000000
  0.110565  0.055282  0.079459      8.000000
  0.110565  0.110565  0.079459      2.000000
  0.000000  0.000000  0.158918      1.000000
  0.055282  0.000000  0.158918      4.000000
  0.110565  0.000000  0.158918      2.000000
  0.055282  0.055282  0.158918      4.000000
  0.110565  0.055282  0.158918      4.000000
  0.110565  0.110565  0.158918      1.000000
 


--------------------------------------------------------------------------------------------------------




 Dimension of arrays:
   k-points           NKPTS =     18   k-points in BZ     NKDIM =     18   number of bands    NBANDS=     36
   number of dos      NEDOS =    301   number of ions     NIONS =      6
   non local maximal  LDIM  =      6   non local SUM 2l+1 LMDIM =     18
   total plane-waves  NPLWV =  31104
   max r-space proj   IRMAX =      1   max aug-charges    IRDMAX= 155006
   dimension x,y,z NGX =    36 NGY =   36 NGZ =   24
   dimension x,y,z NGXF=    72 NGYF=   72 NGZF=   48
   support grid    NGXF=   144 NGYF=  144 NGZF=   96
   ions per type =               2   4
   NGX,Y,Z   is equivalent  to a cutoff of  13.23, 13.23, 12.68 a.u.
   NGXF,Y,Z  is equivalent  to a cutoff of  26.47, 26.47, 25.36 a.u.

 SYSTEM =  pddmc                                   
 POSCAR =  Pd O                                    

 Startparameter for this run:
   NWRITE =      2    write-flag & timer
   PREC   = accura    normal or accurate (medium, high low for compatibility)
   ISTART =      0    job   : 0-new  1-cont  2-samecut
   ICHARG =      2    charge: 1-file 2-atom 10-const
   ISPIN  =      2    spin polarized calculation?
   LNONCOLLINEAR =      F non collinear calculations
   LSORBIT =      F    spin-orbit coupling
   INIWAV =      1    electr: 0-lowe 1-rand  2-diag
   LASPH  =      T    aspherical Exc in radial PAW
 Electronic Relaxation 1
   ENCUT  =  520.0 eV  38.22 Ry    6.18 a.u.   8.41  8.41  5.85*2*pi/ulx,y,z
   ENINI  =  520.0     initial cutoff
   ENAUG  =  605.4 eV  augmentation charge cutoff
   NELM   =    200;   NELMIN=  5; NELMDL= -5     # of ELM steps 
   EDIFF  = 0.1E-05   stopping-criterion for ELM
   LREAL  =      F    real-space projection
   NLSPLINE    = F    spline interpolate recip. space projectors
   LCOMPAT=      F    compatible to vasp.4.4
   GGA_COMPAT  = T    GGA compatible to vasp.4.4-vasp.4.6
   LMAXPAW     = -100 max onsite density
   LMAXMIX     =    2 max onsite mixed and CHGCAR
   VOSKOWN=      0    Vosko Wilk Nusair interpolation
   ROPT   =    0.00000   0.00000
 Ionic relaxation
   EDIFFG = -.1E-01   stopping-criterion for IOM
   NSW    =      0    number of steps for IOM
   NBLOCK =      1;   KBLOCK =      1    inner block; outer block 
   IBRION =     -1    ionic relax: 0-MD 1-quasi-New 2-CG
   NFREE  =      0    steps in history (QN), initial steepest desc. (CG)
   ISIF   =      0    stress and relaxation
   IWAVPR =     10    prediction:  0-non 1-charg 2-wave 3-comb
   ISYM   =      2    0-nonsym 1-usesym 2-fastsym
   LCORR  =      T    Harris-Foulkes like correction to forces

   POTIM  = 0.5000    time-step for ionic-motion
   TEIN   =    0.0    initial temperature
   TEBEG  =    0.0;   TEEND  =   0.0 temperature during run
   SMASS  =  -3.00    Nose mass-parameter (am)
   estimated Nose-frequenzy (Omega)   =  0.10E-29 period in steps = 0.13E+47 mass=  -0.467E-27a.u.
   SCALEE = 1.0000    scale energy and forces
   NPACO  =    256;   APACO  = 10.0  distance and # of slots for P.C.
   PSTRESS=    0.0 pullay stress

  Mass of Ions in am
   POMASS = 106.42 16.00
  Ionic Valenz
   ZVAL   =  16.00  6.00
  Atomic Wigner-Seitz radii
   RWIGS  =  -1.00 -1.00
  virtual crystal weights 
   VCA    =   1.00  1.00
   NELECT =      56.0000    total number of electrons
   NUPDOWN=      -1.0000    fix difference up-down

 DOS related values:
   EMIN   =  10.00;   EMAX   =-10.00  energy-range for DOS
   EFERMI =   0.00;   METHOD = LEGACY      
   ISMEAR =     0;   SIGMA  =   0.05  broadening in eV -4-tet -1-fermi 0-gaus

 Electronic relaxation 2 (details)
   IALGO  =     38    algorithm
   LDIAG  =      T    sub-space diagonalisation (order eigenvalues)
   LSUBROT=      F    optimize rotation matrix (better conditioning)
   TURBO    =      0    0=normal 1=particle mesh
   IRESTART =      0    0=no restart 2=restart with 2 vectors
   NREBOOT  =      0    no. of reboots
   NMIN     =      0    reboot dimension
   EREF     =   0.00    reference energy to select bands
   IMIX   =      4    mixing-type and parameters
     AMIX     =   0.40;   BMIX     =  1.00
     AMIX_MAG =   1.60;   BMIX_MAG =  1.00
     AMIN     =   0.10
     WC   =   100.;   INIMIX=   1;  MIXPRE=   1;  MAXMIX= -45

 Intra band minimization:
   WEIMIN = 0.0000     energy-eigenvalue tresh-hold
   EBREAK =  0.69E-08  absolut break condition
   DEPER  =   0.30     relativ break condition  

   TIME   =   0.40     timestep for ELM

  volume/ion in A,a.u.               =      10.72        72.37
  Fermi-wavevector in a.u.,A,eV,Ry     =   1.563040  2.953718 33.240331  2.443095
  Thomas-Fermi vector in A             =   2.665870
 
 Write flags
   LWAVE        =      F    write WAVECAR
   LDOWNSAMPLE  =      F    k-point downsampling of WAVECAR
   LCHARG       =      F    write CHGCAR
   LVTOT        =      F    write LOCPOT, total local potential
   LVHAR        =      F    write LOCPOT, Hartree potential only
   WRT_POTENTIAL= false  ! write potential to hdf5 file
   LELF         =      F    write electronic localiz. function (ELF)
   LORBIT       =     11    0 simple, 1 ext, 2 COOP (PROOUT), +10 PAW based schemes


 Dipole corrections
   LMONO      =      F    monopole corrections only (constant potential shift)
   LDIPOL     =      F    correct potential (dipole corrections)
   IDIPOL     =      0    1-x, 2-y, 3-z, 4-all directions 
   EPSILON    =  1.0000000 bulk dielectric constant
   LVACPOTAV  =      F  vacuum potentials using an averaging scheme for the charge density
   VACPOTFLAT =  0.1000000 required flatness to determine vacuum potential
 Exchange correlation treatment:
   GGA     = PE    functional components
   XC_C    = 1    coefficients multiplying the functional components
   LIBXC   =     F    Libxc                    
   VOSKOWN =     0    Vosko Wilk Nusair interpolation
   LHFCALC =     F    Hartree Fock is set to
   LHFONE  =     F    Hartree Fock one center treatment
   AEXX    =    0.0000 exact exchange contribution

 Parameters of functionals:
   PE:
     No parameter
 
 Van der Waals corrections
   IVDW    =    12    specifies the selected vdW correction

 Linear response parameters
   LEPSILON=     F    determine dielectric tensor
   LRPA    =     F    only Hartree local field effects (RPA)
   LNABLA  =     F    use nabla operator in PAW spheres
   LVEL    =     F    velocity operator in full k-point grid
   CSHIFT  =0.1000    complex shift for real part using Kramers Kronig
   OMEGAMAX=  -1.0    maximum frequency
   DEG_THRESHOLD= 0.2000000E-02 threshold for treating states as degnerate
   RTIME   =   -0.100 relaxation time in fs
  (WPLASMAI=    0.000 imaginary part of plasma frequency in eV, 0.658/RTIME)
   DFIELD  = 0.0000000 0.0000000 0.0000000 field for delta impulse in time
 
  Optional k-point grid parameters
   LKPOINTS_OPT  =     F    use optional k-point grid
   KPOINTS_OPT_MODE=     1    mode for optional k-point grid
 
 Orbital magnetization related:
   ORBITALMAG=     F  switch on orbital magnetization
   LCHIMAG   =     F  perturbation theory with respect to B field
   DQ        =  0.001000  dq finite difference perturbation B field
   LLRAUG    =     F  two centre corrections for induced B field
   LBONE     =     F  B-component reconstruction in AE one-centre
   LVGVCALC  =     T  calculate vGv susceptibility
   LVGVAPPL  =     F  apply vGv susceptibility instead of pGv for G=0

 Random number generation:
   RANDOM_GENERATOR = DEFAULT
   PCG_SEED         = not used


--------------------------------------------------------------------------------------------------------


 Static calculation
 charge density and potential will be updated during run
 spin polarized calculation
 Variant of blocked Davidson
 Davidson routine will perform the subspace rotation
 perform sub-space diagonalisation
    after iterative eigenvector-optimisation
 modified Broyden-mixing scheme, WC =      100.0
 initial mixing is a Kerker type mixing with AMIX =  0.4000 and BMIX =      1.0000
 Hartree-type preconditioning will be used
 using additional bands             8
 reciprocal scheme for non local part
 use partial core corrections
 calculate Harris-corrections to forces 
   (improved forces if not selfconsistent)
 use gradient corrections 
 use of overlap-Matrix (Vanderbilt PP)
 Gauss-broadening in eV      SIGMA  =   0.05


--------------------------------------------------------------------------------------------------------


  energy-cutoff  :      520.00
  volume of cell :       64.34
      direct lattice vectors                 reciprocal lattice vectors
     4.522230460  0.000000000  0.000000000     0.221129818 -0.000000000  0.000000000
     0.000000000  4.522230460  0.000000000     0.000000000  0.221129818  0.000000000
     0.000000000  0.000000000  3.146273630    -0.000000000 -0.000000000  0.317836310

  length of vectors
     4.522230460  4.522230460  3.146273630     0.221129818  0.221129818  0.317836310


 
 k-points in units of 2pi/SCALE and weight: Automatic mesh                          
   0.00000000  0.00000000  0.00000000       0.016
   0.05528245  0.00000000  0.00000000       0.063
   0.11056491  0.00000000  0.00000000       0.031
   0.05528245  0.05528245  0.00000000       0.063
   0.11056491  0.05528245  0.00000000       0.063
   0.11056491  0.11056491  0.00000000       0.016
   0.00000000  0.00000000  0.07945908       0.031
   0.05528245  0.00000000  0.07945908       0.125
   0.11056491  0.00000000  0.07945908       0.063
   0.05528245  0.05528245  0.07945908       0.125
   0.11056491  0.05528245  0.07945908       0.125
   0.11056491  0.11056491  0.07945908       0.031
   0.00000000  0.00000000  0.15891815       0.016
   0.05528245  0.00000000  0.15891815       0.063
   0.11056491  0.00000000  0.15891815       0.031
   0.05528245  0.05528245  0.15891815       0.063
   0.11056491  0.05528245  0.15891815       0.063
   0.11056491  0.11056491  0.15891815       0.016
 
 k-points in reciprocal lattice and weights: Automatic mesh                          
   0.00000000  0.00000000  0.00000000       0.016
   0.25000000  0.00000000  0.00000000       0.063
   0.50000000  0.00000000  0.00000000       0.031
   0.25000000  0.25000000  0.00000000       0.063
   0.50000000  0.25000000  0.00000000       0.063
   0.50000000  0.50000000  0.00000000       0.016
   0.00000000  0.00000000  0.25000000       0.031
   0.25000000  0.00000000  0.25000000       0.125
   0.50000000  0.00000000  0.25000000       0.063
   0.25000000  0.25000000  0.25000000       0.125
   0.50000000  0.25000000  0.25000000       0.125
   0.50000000  0.50000000  0.25000000       0.031
   0.00000000  0.00000000  0.50000000       0.016
   0.25000000  0.00000000  0.50000000       0.063
   0.50000000  0.00000000  0.50000000       0.031
   0.25000000  0.25000000  0.50000000       0.063
   0.50000000  0.25000000  0.50000000       0.063
   0.50000000  0.50000000  0.50000000       0.016
 
 position of ions in fractional coordinates (direct lattice) 
   0.50000000  0.50000000  0.50000000
   0.00000000  0.00000000  0.00000000
   0.80815192  0.19184808  0.50000000
   0.19184808  0.80815192  0.50000000
   0.30815192  0.30815192  0.00000000
   0.69184808  0.69184808  0.00000000
 
 position of ions in cartesian coordinates  (Angst):
   2.26111523  2.26111523  1.57313682
   0.00000000  0.00000000  0.00000000
   3.65464923  0.86758123  1.57313682
   0.86758123  3.65464923  1.57313682
   1.39353400  1.39353400  0.00000000
   3.12869646  3.12869646  0.00000000
 


--------------------------------------------------------------------------------------------------------


 k-point     1 :   0.0000 0.0000 0.0000  plane waves:    1751
 k-point     2 :   0.2500 0.0000 0.0000  plane waves:    1729
 k-point     3 :   0.5000 0.0000 0.0000  plane waves:    1740
 k-point     4 :   0.2500 0.2500 0.0000  plane waves:    1732
 k-point     5 :   0.5000 0.2500 0.0000  plane waves:    1718
 k-point     6 :   0.5000 0.5000 0.0000  plane waves:    1720
 k-point     7 :   0.0000 0.0000 0.2500  plane waves:    1720
 k-point     8 :   0.2500 0.0000 0.2500  plane waves:    1738
 k-point     9 :   0.5000 0.0000 0.2500  plane waves:    1726
 k-point    10 :   0.2500 0.2500 0.2500  plane waves:    1731
 k-point    11 :   0.5000 0.2500 0.2500  plane waves:    1732
 k-point    12 :   0.5000 0.5000 0.2500  plane waves:    1724
 k-point    13 :   0.0000 0.0000 0.5000  plane waves:    1740
 k-point    14 :   0.2500 0.0000 0.5000  plane waves:    1740
 k-point    15 :   0.5000 0.0000 0.5000  plane waves:    1732
 k-point    16 :   0.2500 0.2500 0.5000  plane waves:    1736
 k-point    17 :   0.5000 0.2500 0.5000  plane waves:    1736
 k-point    18 :   0.5000 0.5000 0.5000  plane waves:    1728

 maximum and minimum number of plane-waves per node :      1751     1718

 maximum number of plane-waves:      1751
 maximum index in each direction: 
   IXMAX=    8   IYMAX=    8   IZMAX=    5
   IXMIN=   -8   IYMIN=   -8   IZMIN=   -6


 serial   3D FFT for wavefunctions
 parallel 3D FFT for charge:
    minimum data exchange during FFTs selected (reduces bandwidth)


 total amount of memory used by VASP MPI-rank0    65939. kBytes
=======================================================================

   base      :      30000. kBytes
   nonl-proj :       9250. kBytes
   fftplans  :       9397. kBytes
   grid      :       7672. kBytes
   one-center:        186. kBytes
   wavefun   :       9434. kBytes
 
     INWAV:  cpu time      0.0000: real time      0.0001
 Broyden mixing: mesh for mixing (old mesh)
   NGX = 17   NGY = 17   NGZ = 11
  (NGX  = 72   NGY  = 72   NGZ  = 48)
  gives a total of   3179 points

 initial charge density was supplied:
 charge density of overlapping atoms calculated
 number of electron      56.0000000 magnetization       6.0000000
 keeping initial charge density in first step


--------------------------------------------------------------------------------------------------------


 Maximum index for augmentation-charges         37643 (set IRDMAX)


--------------------------------------------------------------------------------------------------------


 First call to EWALD:  gamma=   0.442
 Maximum number of real-space cells 2x 2x 3
 Maximum number of reciprocal cells 3x 3x 2

    FEWALD:  cpu time      0.0004: real time      0.0004


--------------------------------------- Ionic step        1  -------------------------------------------




--------------------------------------- Iteration      1(   1)  ---------------------------------------


    POTLOK:  cpu time      0.0486: real time      0.0486
    SETDIJ:  cpu time      0.5942: real time      0.5943
     EDDAV:  cpu time      1.5363: real time      1.7356
       DOS:  cpu time      0.0003: real time      0.0003
    --------------------------------------------
      LOOP:  cpu time      2.1795: real time      2.3788

 eigenvalue-minimisations  :  2736
 total energy-change (2. order) : 0.5807995E+03  (-0.3449576E+04)
 number of electron      56.0000000 magnetization       6.0000000
 augmentation part       56.0000000 magnetization       6.0000000

 Free energy of the ion-electron system (eV)
  ---------------------------------------------------
  alpha Z        PSCENC =       302.45619847
  Ewald energy   TEWEN  =     -5214.09126118
  -Hartree energ DENC   =     -1860.07067583
  -exchange      EXHF   =         0.00000000
  -V(xc)+E(xc)   XCENC  =       277.13147676
  PAW double counting   =      5901.46612542    -5850.99266113
  entropy T*S    EENTRO =        -0.00198518
  eigenvalues    EBANDS =        52.37792717
  atomic energy  EATOM  =      6972.52437674
  Solvation  Ediel_sol  =         0.00000000
  ---------------------------------------------------
  free energy    TOTEN  =       580.79952123 eV

  energy without entropy =      580.80150641  energy(sigma->0) =      580.80051382


--------------------------------------------------------------------------------------------------------




--------------------------------------- Iteration      1(   2)  ---------------------------------------


     EDDAV:  cpu time      1.8498: real time      1.8519
       DOS:  cpu time      0.0003: real time      0.0003
    --------------------------------------------
      LOOP:  cpu time      1.8500: real time      1.8522

 eigenvalue-minimisations  :  2992
 total energy-change (2. order) :-0.5892743E+03  (-0.5683827E+03)
 number of electron      56.0000000 magnetization       6.0000000
 augmentation part       56.0000000 magnetization       6.0000000

 Free energy of the ion-electron system (eV)
  ---------------------------------------------------
  alpha Z        PSCENC =       302.45619847
  Ewald energy   TEWEN  =     -5214.09126118
  -Hartree energ DENC   =     -1860.07067583
  -exchange      EXHF   =         0.00000000
  -V(xc)+E(xc)   XCENC  =       277.13147676
  PAW double counting   =      5901.46612542    -5850.99266113
  entropy T*S    EENTRO =        -0.00257177
  eigenvalues    EBANDS =      -536.89576050
  atomic energy  EATOM  =      6972.52437674
  Solvation  Ediel_sol  =         0.00000000
  ---------------------------------------------------
  free energy    TOTEN  =        -8.47475303 eV

  energy without entropy =       -8.47218126  energy(sigma->0) =       -8.47346714


--------------------------------------------------------------------------------------------------------




--------------------------------------- Iteration      1(   3)  ---------------------------------------


     EDDAV:  cpu time      1.2984: real time      1.3001
       DOS:  cpu time      0.0003: real time      0.0003
    --------------------------------------------
      LOOP:  cpu time      1.2987: real time      1.3004

 eigenvalue-minimisations  :  2824
 total energy-change (2. order) :-0.3211767E+02  (-0.3178819E+02)
 number of electron      56.0000000 magnetization       6.0000000
 augmentation part       56.0000000 magnetization       6.0000000

 Free energy of the ion-electron system (eV)
  ---------------------------------------------------
  alpha Z        PSCENC =       302.45619847
  Ewald energy   TEWEN  =     -5214.09126118
  -Hartree energ DENC   =     -1860.07067583
  -exchange      EXHF   =         0.00000000
  -V(xc)+E(xc)   XCENC  =       277.13147676
  PAW double counting   =      5901.46612542    -5850.99266113
  entropy T*S    EENTRO =        -0.00400597
  eigenvalues    EBANDS =      -569.01199277
  atomic energy  EATOM  =      6972.52437674
  Solvation  Ediel_sol  =         0.00000000
  ---------------------------------------------------
  free energy    TOTEN  =       -40.59241950 eV

  energy without entropy =      -40.58841353  energy(sigma->0) =      -40.59041651


--------------------------------------------------------------------------------------------------------




--------------------------------------- Iteration      1(   4)  ---------------------------------------


     EDDAV:  cpu time      1.5369: real time      1.5384
       DOS:  cpu time      0.0003: real time      0.0003
    --------------------------------------------
      LOOP:  cpu time      1.5372: real time      1.5387

 eigenvalue-minimisations  :  2908
 total energy-change (2. order) :-0.4041698E+00  (-0.4035729E+00)
 number of electron      56.0000000 magnetization       6.0000000
 augmentation part       56.0000000 magnetization       6.0000000

 Free energy of the ion-electron system (eV)
  ---------------------------------------------------
  alpha Z        PSCENC =       302.45619847
  Ewald energy   TEWEN  =     -5214.09126118
  -Hartree energ DENC   =     -1860.07067583
  -exchange      EXHF   =         0.00000000
  -V(xc)+E(xc)   XCENC  =       277.13147676
  PAW double counting   =      5901.46612542    -5850.99266113
  entropy T*S    EENTRO =        -0.00405947
  eigenvalues    EBANDS =      -569.41610906
  atomic energy  EATOM  =      6972.52437674
  Solvation  Ediel_sol  =         0.00000000
  ---------------------------------------------------
  free energy    TOTEN  =       -40.99658929 eV

  energy without entropy =      -40.99252982  energy(sigma->0) =      -40.99455955


--------------------------------------------------------------------------------------------------------




--------------------------------------- Iteration      1(   5)  ---------------------------------------


     EDDAV:  cpu time      1.4164: real time      1.4180
       DOS:  cpu time      0.0003: real time      0.0003
    CHARGE:  cpu time      0.1885: real time      0.1887
    MIXING:  cpu time      0.0014: real time      0.0014
    --------------------------------------------
      LOOP:  cpu time      1.6066: real time      1.6085

 eigenvalue-minimisations  :  2740
 total energy-change (2. order) :-0.4486913E-02  (-0.4486557E-02)
 number of electron      56.0000002 magnetization       0.0545337
 augmentation part       16.7793097 magnetization      -0.0797930

 Broyden mixing:
  rms(total) = 0.28165E+01    rms(broyden)= 0.28160E+01
  rms(prec ) = 0.53339E+01
  weight for this iteration     100.00

 Free energy of the ion-electron system (eV)
  ---------------------------------------------------
  alpha Z        PSCENC =       302.45619847
  Ewald energy   TEWEN  =     -5214.09126118
  -Hartree energ DENC   =     -1860.07067583
  -exchange      EXHF   =         0.00000000
  -V(xc)+E(xc)   XCENC  =       277.13147676
  PAW double counting   =      5901.46612542    -5850.99266113
  entropy T*S    EENTRO =        -0.00405748
  eigenvalues    EBANDS =      -569.42059796
  atomic energy  EATOM  =      6972.52437674
  Solvation  Ediel_sol  =         0.00000000
  ---------------------------------------------------
  free energy    TOTEN  =       -41.00107620 eV

  energy without entropy =      -40.99701872  energy(sigma->0) =      -40.99904746


--------------------------------------------------------------------------------------------------------




--------------------------------------- Iteration      1(   6)  ---------------------------------------


    POTLOK:  cpu time      0.0468: real time      0.0469
    SETDIJ:  cpu time      0.5841: real time      0.5843
     EDDAV:  cpu time      1.4374: real time      1.4391
       DOS:  cpu time      0.0003: real time      0.0003
    CHARGE:  cpu time      0.1455: real time      0.1457
    MIXING:  cpu time      0.0014: real time      0.0014
    --------------------------------------------
      LOOP:  cpu time      2.2155: real time      2.2177

 eigenvalue-minimisations  :  2768
 total energy-change (2. order) : 0.5339538E+01  (-0.5171291E+01)
 number of electron      56.0000002 magnetization      -0.2995685
 augmentation part       18.3481745 magnetization      -0.0007960

 Broyden mixing:
  rms(total) = 0.15375E+01    rms(broyden)= 0.15367E+01
  rms(prec ) = 0.32903E+01
  weight for this iteration     100.00

 eigenvalues of (default mixing * dielectric matrix)
  average eigenvalue GAMMA=   0.7344
  0.7344

 Free energy of the ion-electron system (eV)
  ---------------------------------------------------
  alpha Z        PSCENC =       302.45619847
  Ewald energy   TEWEN  =     -5214.09126118
  -Hartree energ DENC   =     -1784.46163585
  -exchange      EXHF   =         0.00000000
  -V(xc)+E(xc)   XCENC  =       276.15958442
  PAW double counting   =      6061.02864461    -6024.86261340
  entropy T*S    EENTRO =        -0.00677640
  eigenvalues    EBANDS =      -624.40805555
  atomic energy  EATOM  =      6972.52437674
  Solvation  Ediel_sol  =         0.00000000
  ---------------------------------------------------
  free energy    TOTEN  =       -35.66153815 eV

  energy without entropy =      -35.65476175  energy(sigma->0) =      -35.65814995


--------------------------------------------------------------------------------------------------------




--------------------------------------- Iteration      1(   7)  ---------------------------------------


    POTLOK:  cpu time      0.0464: real time      0.0465
    SETDIJ:  cpu time      0.5879: real time      0.5888
     EDDAV:  cpu time      1.1960: real time      1.1969
       DOS:  cpu time      0.0003: real time      0.0003
    CHARGE:  cpu time      0.1603: real time      0.1603
    MIXING:  cpu time      0.0051: real time      0.0051
    --------------------------------------------
      LOOP:  cpu time      1.9961: real time      1.9979

 eigenvalue-minimisations  :  2704
 total energy-change (2. order) : 0.3450565E+01  (-0.1402523E+01)
 number of electron      56.0000002 magnetization      -0.2919009
 augmentation part       17.4228714 magnetization      -0.1615870

 Broyden mixing:
  rms(total) = 0.53280E+00    rms(broyden)= 0.53266E+00
  rms(prec ) = 0.81529E+00
  weight for this iteration     100.00

 eigenvalues of (default mixing * dielectric matrix)
  average eigenvalue GAMMA=   0.7246
  0.9050  0.5442

 Free energy of the ion-electron system (eV)
  ---------------------------------------------------
  alpha Z        PSCENC =       302.45619847
  Ewald energy   TEWEN  =     -5214.09126118
  -Hartree energ DENC   =     -1819.04079533
  -exchange      EXHF   =         0.00000000
  -V(xc)+E(xc)   XCENC  =       276.57220183
  PAW double counting   =      6241.66800347    -6203.22570179
  entropy T*S    EENTRO =        -0.00484190
  eigenvalues    EBANDS =      -589.06915357
  atomic energy  EATOM  =      6972.52437674
  Solvation  Ediel_sol  =         0.00000000
  ---------------------------------------------------
  free energy    TOTEN  =       -32.21097327 eV

  energy without entropy =      -32.20613136  energy(sigma->0) =      -32.20855231


--------------------------------------------------------------------------------------------------------




--------------------------------------- Iteration      1(   8)  ---------------------------------------


    POTLOK:  cpu time      0.0812: real time      0.0812
    SETDIJ:  cpu time      0.5872: real time      0.5872
     EDDAV:  cpu time      1.1977: real time      1.2037
       DOS:  cpu time      0.0003: real time      0.0003
    CHARGE:  cpu time      0.1396: real time      0.1398
    MIXING:  cpu time      0.0014: real time      0.0014
    --------------------------------------------
      LOOP:  cpu time      2.0074: real time      2.0136

 eigenvalue-minimisations  :  2740
 total energy-change (2. order) : 0.3509475E-01  (-0.1248607E+00)
 number of electron      56.0000002 magnetization      -0.1293529
 augmentation part       17.5436277 magnetization      -0.0186727

 Broyden mixing:
  rms(total) = 0.29156E+00    rms(broyden)= 0.29155E+00
  rms(prec ) = 0.38968E+00
  weight for this iteration     100.00

 eigenvalues of (default mixing * dielectric matrix)
  average eigenvalue GAMMA=   1.0394
  0.5705  0.8986  1.6489

 Free energy of the ion-electron system (eV)
  ---------------------------------------------------
  alpha Z        PSCENC =       302.45619847
  Ewald energy   TEWEN  =     -5214.09126118
  -Hartree energ DENC   =     -1807.92872449
  -exchange      EXHF   =         0.00000000
  -V(xc)+E(xc)   XCENC  =       276.18272201
  PAW double counting   =      6363.64823323    -6327.45792628
  entropy T*S    EENTRO =        -0.00584780
  eigenvalues    EBANDS =      -597.50364920
  atomic energy  EATOM  =      6972.52437674
  Solvation  Ediel_sol  =         0.00000000
  ---------------------------------------------------
  free energy    TOTEN  =       -32.17587851 eV

  energy without entropy =      -32.17003072  energy(sigma->0) =      -32.17295462


--------------------------------------------------------------------------------------------------------




--------------------------------------- Iteration      1(   9)  ---------------------------------------


    POTLOK:  cpu time      0.0472: real time      0.0473
    SETDIJ:  cpu time      0.5804: real time      0.5845
     EDDAV:  cpu time      1.5048: real time      1.5765
       DOS:  cpu time      0.0003: real time      0.0003
    CHARGE:  cpu time      0.1456: real time      0.1938
    MIXING:  cpu time      0.0015: real time      0.0015
    --------------------------------------------
      LOOP:  cpu time      2.2798: real time      2.4038

 eigenvalue-minimisations  :  2812
 total energy-change (2. order) : 0.1567465E-01  (-0.1062810E-01)
 number of electron      56.0000002 magnetization      -0.0395905
 augmentation part       17.6064588 magnetization      -0.0027910

 Broyden mixing:
  rms(total) = 0.86364E-01    rms(broyden)= 0.86294E-01
  rms(prec ) = 0.14617E+00
  weight for this iteration     100.00

 eigenvalues of (default mixing * dielectric matrix)
  average eigenvalue GAMMA=   1.1055
  2.2085  0.9419  0.5890  0.6825

 Free energy of the ion-electron system (eV)
  ---------------------------------------------------
  alpha Z        PSCENC =       302.45619847
  Ewald energy   TEWEN  =     -5214.09126118
  -Hartree energ DENC   =     -1802.62355553
  -exchange      EXHF   =         0.00000000
  -V(xc)+E(xc)   XCENC  =       276.10315752
  PAW double counting   =      6543.71042226    -6509.59386895
  entropy T*S    EENTRO =        -0.00599095
  eigenvalues    EBANDS =      -600.63968225
  atomic energy  EATOM  =      6972.52437674
  Solvation  Ediel_sol  =         0.00000000
  ---------------------------------------------------
  free energy    TOTEN  =       -32.16020387 eV

  energy without entropy =      -32.15421291  energy(sigma->0) =      -32.15720839


--------------------------------------------------------------------------------------------------------




--------------------------------------- Iteration      1(  10)  ---------------------------------------


    POTLOK:  cpu time      0.0468: real time      0.0469
    SETDIJ:  cpu time      0.5285: real time      0.5837
     EDDAV:  cpu time      1.1934: real time      1.2210
       DOS:  cpu time      0.0003: real time      0.0003
    CHARGE:  cpu time      0.1436: real time      0.1437
    MIXING:  cpu time      0.0015: real time      0.0016
    --------------------------------------------
      LOOP:  cpu time      1.9141: real time      1.9972

 eigenvalue-minimisations  :  2748
 total energy-change (2. order) : 0.2515645E-02  (-0.1897693E-02)
 number of electron      56.0000002 magnetization      -0.0153362
 augmentation part       17.5756202 magnetization      -0.0024108

 Broyden mixing:
  rms(total) = 0.32396E-01    rms(broyden)= 0.32368E-01
  rms(prec ) = 0.36469E-01
  weight for this iteration     100.00

 eigenvalues of (default mixing * dielectric matrix)
  average eigenvalue GAMMA=   1.1282
  2.4734  1.0845  0.8891  0.5970  0.5970

 Free energy of the ion-electron system (eV)
  ---------------------------------------------------
  alpha Z        PSCENC =       302.45619847
  Ewald energy   TEWEN  =     -5214.09126118
  -Hartree energ DENC   =     -1803.90114101
  -exchange      EXHF   =         0.00000000
  -V(xc)+E(xc)   XCENC  =       276.13114943
  PAW double counting   =      6588.12530786    -6554.08477730
  entropy T*S    EENTRO =        -0.00697179
  eigenvalues    EBANDS =      -599.31056943
  atomic energy  EATOM  =      6972.52437674
  Solvation  Ediel_sol  =         0.00000000
  ---------------------------------------------------
  free energy    TOTEN  =       -32.15768822 eV

  energy without entropy =      -32.15071643  energy(sigma->0) =      -32.15420232


--------------------------------------------------------------------------------------------------------




--------------------------------------- Iteration      1(  11)  ---------------------------------------


    POTLOK:  cpu time      0.0463: real time      0.0464
    SETDIJ:  cpu time      0.5792: real time      0.5835
     EDDAV:  cpu time      1.4154: real time      1.4218
       DOS:  cpu time      0.0003: real time      0.0002
    CHARGE:  cpu time      0.1440: real time      0.1447
    MIXING:  cpu time      0.0016: real time      0.0016
    --------------------------------------------
      LOOP:  cpu time      2.1867: real time      2.1982

 eigenvalue-minimisations  :  2760
 total energy-change (2. order) :-0.6807706E-03  (-0.1480578E-03)
 number of electron      56.0000002 magnetization      -0.0127223
 augmentation part       17.5745932 magnetization      -0.0057354

 Broyden mixing:
  rms(total) = 0.13055E-01    rms(broyden)= 0.13050E-01
  rms(prec ) = 0.20422E-01
  weight for this iteration     100.00

 eigenvalues of (default mixing * dielectric matrix)
  average eigenvalue GAMMA=   1.1384
  2.4911  1.3360  1.0090  0.7678  0.5862  0.6404

 Free energy of the ion-electron system (eV)
  ---------------------------------------------------
  alpha Z        PSCENC =       302.45619847
  Ewald energy   TEWEN  =     -5214.09126118
  -Hartree energ DENC   =     -1804.21674099
  -exchange      EXHF   =         0.00000000
  -V(xc)+E(xc)   XCENC  =       276.14545626
  PAW double counting   =      6602.14458409    -6568.11270422
  entropy T*S    EENTRO =        -0.00706079
  eigenvalues    EBANDS =      -599.00121736
  atomic energy  EATOM  =      6972.52437674
  Solvation  Ediel_sol  =         0.00000000
  ---------------------------------------------------
  free energy    TOTEN  =       -32.15836899 eV

  energy without entropy =      -32.15130820  energy(sigma->0) =      -32.15483859


--------------------------------------------------------------------------------------------------------




--------------------------------------- Iteration      1(  12)  ---------------------------------------


    POTLOK:  cpu time      0.1198: real time      0.1199
    SETDIJ:  cpu time      0.5893: real time      0.5893
     EDDAV:  cpu time      1.2170: real time      1.2174
       DOS:  cpu time      0.0003: real time      0.0003
    CHARGE:  cpu time      0.1412: real time      0.1412
    MIXING:  cpu time      0.0016: real time      0.0016
    --------------------------------------------
      LOOP:  cpu time      2.0692: real time      2.0697

 eigenvalue-minimisations  :  2776
 total energy-change (2. order) : 0.3051651E-04  (-0.3727533E-04)
 number of electron      56.0000002 magnetization      -0.0075528
 augmentation part       17.5769478 magnetization      -0.0020560

 Broyden mixing:
  rms(total) = 0.44967E-02    rms(broyden)= 0.44948E-02
  rms(prec ) = 0.69278E-02
  weight for this iteration     100.00

 eigenvalues of (default mixing * dielectric matrix)
  average eigenvalue GAMMA=   1.1784
  2.5428  1.8942  0.9779  0.9135  0.5803  0.6700  0.6700

 Free energy of the ion-electron system (eV)
  ---------------------------------------------------
  alpha Z        PSCENC =       302.45619847
  Ewald energy   TEWEN  =     -5214.09126118
  -Hartree energ DENC   =     -1804.47060527
  -exchange      EXHF   =         0.00000000
  -V(xc)+E(xc)   XCENC  =       276.16138508
  PAW double counting   =      6604.42313955    -6570.32917012
  entropy T*S    EENTRO =        -0.00704396
  eigenvalues    EBANDS =      -598.82535778
  atomic energy  EATOM  =      6972.52437674
  Solvation  Ediel_sol  =         0.00000000
  ---------------------------------------------------
  free energy    TOTEN  =       -32.15833847 eV

  energy without entropy =      -32.15129452  energy(sigma->0) =      -32.15481649


--------------------------------------------------------------------------------------------------------




--------------------------------------- Iteration      1(  13)  ---------------------------------------


    POTLOK:  cpu time      0.0455: real time      0.0457
    SETDIJ:  cpu time      0.5840: real time      0.5843
     EDDAV:  cpu time      1.2134: real time      1.2146
       DOS:  cpu time      0.0003: real time      0.0003
    CHARGE:  cpu time      0.1405: real time      0.1405
    MIXING:  cpu time      0.0016: real time      0.0016
    --------------------------------------------
      LOOP:  cpu time      1.9853: real time      1.9869

 eigenvalue-minimisations  :  2772
 total energy-change (2. order) :-0.1336997E-04  (-0.9385106E-05)
 number of electron      56.0000002 magnetization      -0.0047505
 augmentation part       17.5757692 magnetization      -0.0016195

 Broyden mixing:
  rms(total) = 0.15628E-02    rms(broyden)= 0.15606E-02
  rms(prec ) = 0.20915E-02
  weight for this iteration     100.00

 eigenvalues of (default mixing * dielectric matrix)
  average eigenvalue GAMMA=   1.1807
  2.6287  2.0687  1.0256  1.0256  0.5771  0.7304  0.7304  0.6589

 Free energy of the ion-electron system (eV)
  ---------------------------------------------------
  alpha Z        PSCENC =       302.45619847
  Ewald energy   TEWEN  =     -5214.09126118
  -Hartree energ DENC   =     -1804.73395508
  -exchange      EXHF   =         0.00000000
  -V(xc)+E(xc)   XCENC  =       276.17140304
  PAW double counting   =      6605.14902621    -6570.98343698
  entropy T*S    EENTRO =        -0.00706617
  eigenvalues    EBANDS =      -598.64363689
  atomic energy  EATOM  =      6972.52437674
  Solvation  Ediel_sol  =         0.00000000
  ---------------------------------------------------
  free energy    TOTEN  =       -32.15835184 eV

  energy without entropy =      -32.15128568  energy(sigma->0) =      -32.15481876


--------------------------------------------------------------------------------------------------------




--------------------------------------- Iteration      1(  14)  ---------------------------------------


    POTLOK:  cpu time      0.0457: real time      0.0458
    SETDIJ:  cpu time      0.5831: real time      0.5831
     EDDAV:  cpu time      1.0958: real time      1.0959
       DOS:  cpu time      0.0003: real time      0.0003
    CHARGE:  cpu time      0.1422: real time      0.1423
    MIXING:  cpu time      0.0016: real time      0.0016
    --------------------------------------------
      LOOP:  cpu time      1.8687: real time      1.8690

 eigenvalue-minimisations  :  2352
 total energy-change (2. order) :-0.1613505E-05  (-0.3821300E-06)
 number of electron      56.0000002 magnetization      -0.0031720
 augmentation part       17.5759806 magnetization      -0.0010125

 Broyden mixing:
  rms(total) = 0.64496E-03    rms(broyden)= 0.64445E-03
  rms(prec ) = 0.93345E-03
  weight for this iteration     100.00

 eigenvalues of (default mixing * dielectric matrix)
  average eigenvalue GAMMA=   1.2123
  2.6921  2.2443  1.2693  1.1460  0.8272  0.8272  0.5789  0.6732  0.6526

 Free energy of the ion-electron system (eV)
  ---------------------------------------------------
  alpha Z        PSCENC =       302.45619847
  Ewald energy   TEWEN  =     -5214.09126118
  -Hartree energ DENC   =     -1804.73925271
  -exchange      EXHF   =         0.00000000
  -V(xc)+E(xc)   XCENC  =       276.17137380
  PAW double counting   =      6605.18426312    -6571.00598254
  entropy T*S    EENTRO =        -0.00706800
  eigenvalues    EBANDS =      -598.65100114
  atomic energy  EATOM  =      6972.52437674
  Solvation  Ediel_sol  =         0.00000000
  ---------------------------------------------------
  free energy    TOTEN  =       -32.15835346 eV

  energy without entropy =      -32.15128546  energy(sigma->0) =      -32.15481946


--------------------------------------------------------------------------------------------------------




--------------------------------------- Iteration      1(  15)  ---------------------------------------


    POTLOK:  cpu time      0.0462: real time      0.0463
    SETDIJ:  cpu time      0.5817: real time      0.5822
     EDDAV:  cpu time      0.9050: real time      0.9051
       DOS:  cpu time      0.0003: real time      0.0003
    --------------------------------------------
      LOOP:  cpu time      1.5332: real time      1.5339

 eigenvalue-minimisations  :  1744
 total energy-change (2. order) : 0.2597021E-06  (-0.1525340E-06)
 number of electron      56.0000002 magnetization      -0.0031720
 augmentation part       17.5759806 magnetization      -0.0010125

 Free energy of the ion-electron system (eV)
  ---------------------------------------------------
  alpha Z        PSCENC =       302.45619847
  Ewald energy   TEWEN  =     -5214.09126118
  -Hartree energ DENC   =     -1804.72746852
  -exchange      EXHF   =         0.00000000
  -V(xc)+E(xc)   XCENC  =       276.17073167
  PAW double counting   =      6604.93598196    -6570.75272213
  entropy T*S    EENTRO =        -0.00706869
  eigenvalues    EBANDS =      -598.66712151
  atomic energy  EATOM  =      6972.52437674
  Solvation  Ediel_sol  =         0.00000000
  ---------------------------------------------------
  free energy    TOTEN  =       -32.15835320 eV

  energy without entropy =      -32.15128450  energy(sigma->0) =      -32.15481885


--------------------------------------------------------------------------------------------------------




 average (electrostatic) potential at core
  the test charge radii are     1.0504  0.7215
  (the norm of the test charge is              1.0000)
       1 -80.5272       2 -80.5272       3 -70.0502       4 -70.0502       5 -70.0502
       6 -70.0502
 
 
 
 E-fermi :   5.5194     XC(G=0): -11.8262     alpha+bet :-12.2345

 val. band max:        5.5176226168   @ k =   0.2500   0.2500   0.0000
 cond. band min:       5.5305327154   @ k =   0.5000   0.2500   0.5000
 fundamental gap:      0.0129100986
 Fermi energy:         5.5193981227

 spin component 1

 k-point     1 :       0.0000    0.0000    0.0000
  band No.  band energies     occupation 
      1     -46.4284      1.00000
      2     -46.4208      1.00000
      3     -46.3248      1.00000
      4     -46.3248      1.00000
      5     -46.1617      1.00000
      6     -46.1617      1.00000
      7     -13.9727      1.00000
      8     -12.8304      1.00000
      9     -12.0475      1.00000
     10     -12.0475      1.00000
     11      -2.7650      1.00000
     12      -2.5450      1.00000
     13      -1.4236      1.00000
     14      -1.4236      1.00000
     15      -1.0154      1.00000
     16       1.6976      1.00000
     17       1.9712      1.00000
     18       1.9712      1.00000
     19       2.1680      1.00000
     20       2.2300      1.00000
     21       2.2300      1.00000
     22       2.3983      1.00000
     23       2.9386      1.00000
     24       3.2991      1.00000
     25       4.0956      1.00000
     26       4.0956      1.00000
     27       4.7044      1.00000
     28       4.7285      1.00000
     29       5.7186      0.00000
     30       8.1585      0.00000
     31       8.1585      0.00000
     32       9.1553      0.00000
     33      11.6810      0.00000
     34      15.5178      0.00000
     35      15.5178      0.00000
     36      18.3741      0.00000

 k-point     2 :       0.2500    0.0000    0.0000
  band No.  band energies     occupation 
      1     -46.4273      1.00000
      2     -46.4219      1.00000
      3     -46.3245      1.00000
      4     -46.3245      1.00000
      5     -46.1621      1.00000
      6     -46.1621      1.00000
      7     -13.7683      1.00000
      8     -12.8669      1.00000
      9     -12.2377      1.00000
     10     -12.1346      1.00000
     11      -2.3750      1.00000
     12      -2.0976      1.00000
     13      -1.3845      1.00000
     14      -1.3696      1.00000
     15      -0.6451      1.00000
     16       0.8419      1.00000
     17       0.8686      1.00000
     18       1.2054      1.00000
     19       1.6721      1.00000
     20       1.7837      1.00000
     21       3.0142      1.00000
     22       3.0937      1.00000
     23       3.3775      1.00000
     24       3.6961      1.00000
     25       3.7413      1.00000
     26       4.0371      1.00000
     27       4.5593      1.00000
     28       5.4278      0.99521
     29       5.9979      0.00000
     30       7.9482      0.00000
     31       8.0039      0.00000
     32       8.7863      0.00000
     33      12.5324      0.00000
     34      15.3542      0.00000
     35      15.8834      0.00000
     36      18.0519      0.00000

 k-point     3 :       0.5000    0.0000    0.0000
  band No.  band energies     occupation 
      1     -46.4246      1.00000
      2     -46.4246      1.00000
      3     -46.3242      1.00000
      4     -46.3242      1.00000
      5     -46.1625      1.00000
      6     -46.1625      1.00000
      7     -13.2597      1.00000
      8     -13.2597      1.00000
      9     -12.2972      1.00000
     10     -12.2972      1.00000
     11      -1.6177      1.00000
     12      -1.6177      1.00000
     13      -1.3272      1.00000
     14      -1.3272      1.00000
     15      -0.0560      1.00000
     16      -0.0560      1.00000
     17       0.4422      1.00000
     18       0.4422      1.00000
     19       1.1250      1.00000
     20       1.1250      1.00000
     21       3.4938      1.00000
     22       3.4938      1.00000
     23       3.7884      1.00000
     24       3.7884      1.00000
     25       3.8166      1.00000
     26       3.8166      1.00000
     27       4.8277      1.00000
     28       4.8277      1.00000
     29       7.6470      0.00000
     30       7.6470      0.00000
     31       7.7829      0.00000
     32       7.7829      0.00000
     33      14.2149      0.00000
     34      14.2149      0.00000
     35      16.9707      0.00000
     36      16.9707      0.00000

 k-point     4 :       0.2500    0.2500    0.0000
  band No.  band energies     occupation 
      1     -46.4265      1.00000
      2     -46.4227      1.00000
      3     -46.3251      1.00000
      4     -46.3242      1.00000
      5     -46.1625      1.00000
      6     -46.1617      1.00000
      7     -13.6291      1.00000
      8     -12.9598      1.00000
      9     -12.3243      1.00000
     10     -12.1192      1.00000
     11      -2.6640      1.00000
     12      -1.5662      1.00000
     13      -1.4556      1.00000
     14      -1.3267      1.00000
     15      -0.3237      1.00000
     16      -0.0423      1.00000
     17       1.0788      1.00000
     18       1.3242      1.00000
     19       2.2392      1.00000
     20       2.3218      1.00000
     21       2.4747      1.00000
     22       2.5579      1.00000
     23       2.8867      1.00000
     24       3.5755      1.00000
     25       3.8764      1.00000
     26       4.0531      1.00000
     27       4.8776      1.00000
     28       5.5176      0.52003
     29       6.1379      0.00000
     30       7.7783      0.00000
     31       8.1463      0.00000
     32       8.3522      0.00000
     33      13.2920      0.00000
     34      15.6862      0.00000
     35      15.8059      0.00000
     36      17.7754      0.00000

 k-point     5 :       0.5000    0.2500    0.0000
  band No.  band energies     occupation 
      1     -46.4246      1.00000
      2     -46.4246      1.00000
      3     -46.3248      1.00000
      4     -46.3248      1.00000
      5     -46.1621      1.00000
      6     -46.1621      1.00000
      7     -13.2871      1.00000
      8     -13.2871      1.00000
      9     -12.2418      1.00000
     10     -12.2418      1.00000
     11      -2.2488      1.00000
     12      -2.2488      1.00000
     13      -1.4123      1.00000
     14      -1.4123      1.00000
     15       0.4855      1.00000
     16       0.4855      1.00000
     17       1.1121      1.00000
     18       1.1121      1.00000
     19       1.4993      1.00000
     20       1.4993      1.00000
     21       2.9457      1.00000
     22       2.9457      1.00000
     23       3.3416      1.00000
     24       3.3416      1.00000
     25       3.5075      1.00000
     26       3.5075      1.00000
     27       5.3116      1.00000
     28       5.3116      1.00000
     29       7.2341      0.00000
     30       7.2341      0.00000
     31       7.9671      0.00000
     32       7.9671      0.00000
     33      14.7560      0.00000
     34      14.7560      0.00000
     35      16.8007      0.00000
     36      16.8007      0.00000

 k-point     6 :       0.5000    0.5000    0.0000
  band No.  band energies     occupation 
      1     -46.4246      1.00000
      2     -46.4246      1.00000
      3     -46.3253      1.00000
      4     -46.3253      1.00000
      5     -46.1616      1.00000
      6     -46.1616      1.00000
      7     -13.3123      1.00000
      8     -13.3123      1.00000
      9     -12.1884      1.00000
     10     -12.1884      1.00000
     11      -2.6520      1.00000
     12      -2.6520      1.00000
     13      -1.4876      1.00000
     14      -1.4876      1.00000
     15       0.9907      1.00000
     16       0.9907      1.00000
     17       1.7850      1.00000
     18       1.7850      1.00000
     19       2.2491      1.00000
     20       2.2491      1.00000
     21       2.3130      1.00000
     22       2.3130      1.00000
     23       2.5265      1.00000
     24       2.5265      1.00000
     25       3.3443      1.00000
     26       3.3443      1.00000
     27       5.5755      0.05629
     28       5.5755      0.05629
     29       6.7976      0.00000
     30       6.7976      0.00000
     31       8.1344      0.00000
     32       8.1344      0.00000
     33      15.7066      0.00000
     34      15.7066      0.00000
     35      16.1309      0.00000
     36      16.1309      0.00000

 k-point     7 :       0.0000    0.0000    0.2500
  band No.  band energies     occupation 
      1     -46.4582      1.00000
      2     -46.4529      1.00000
      3     -46.3225      1.00000
      4     -46.3225      1.00000
      5     -46.1576      1.00000
      6     -46.1576      1.00000
      7     -13.5347      1.00000
      8     -12.6770      1.00000
      9     -12.2463      1.00000
     10     -12.2463      1.00000
     11      -2.2867      1.00000
     12      -1.8648      1.00000
     13      -1.0144      1.00000
     14      -1.0144      1.00000
     15      -0.4604      1.00000
     16       0.2097      1.00000
     17       1.0378      1.00000
     18       1.2704      1.00000
     19       1.2704      1.00000
     20       2.2204      1.00000
     21       2.4921      1.00000
     22       2.4921      1.00000
     23       2.7096      1.00000
     24       3.3243      1.00000
     25       4.3595      1.00000
     26       4.8815      1.00000
     27       4.8815      1.00000
     28       5.3691      0.99999
     29       5.8631      0.00000
     30       7.1422      0.00000
     31       7.1422      0.00000
     32       8.1095      0.00000
     33      13.3883      0.00000
     34      17.2293      0.00000
     35      17.2293      0.00000
     36      18.2622      0.00000

 k-point     8 :       0.2500    0.0000    0.2500
  band No.  band energies     occupation 
      1     -46.4576      1.00000
      2     -46.4538      1.00000
      3     -46.3222      1.00000
      4     -46.3222      1.00000
      5     -46.1578      1.00000
      6     -46.1578      1.00000
      7     -13.3695      1.00000
      8     -12.6511      1.00000
      9     -12.4263      1.00000
     10     -12.3122      1.00000
     11      -1.9594      1.00000
     12      -1.6512      1.00000
     13      -0.9953      1.00000
     14      -0.9635      1.00000
     15      -0.2044      1.00000
     16       0.0721      1.00000
     17       0.1977      1.00000
     18       1.3793      1.00000
     19       1.4726      1.00000
     20       1.7379      1.00000
     21       1.8568      1.00000
     22       2.6145      1.00000
     23       3.4312      1.00000
     24       3.7445      1.00000
     25       4.1124      1.00000
     26       4.5275      1.00000
     27       4.9230      1.00000
     28       5.2015      1.00000
     29       6.3305      0.00000
     30       6.4720      0.00000
     31       7.3264      0.00000
     32       8.4973      0.00000
     33      13.9689      0.00000
     34      16.7171      0.00000
     35      17.4945      0.00000
     36      18.3181      0.00000

 k-point     9 :       0.5000    0.0000    0.2500
  band No.  band energies     occupation 
      1     -46.4558      1.00000
      2     -46.4558      1.00000
      3     -46.3220      1.00000
      4     -46.3220      1.00000
      5     -46.1580      1.00000
      6     -46.1580      1.00000
      7     -12.9534      1.00000
      8     -12.9534      1.00000
      9     -12.4528      1.00000
     10     -12.4528      1.00000
     11      -1.4086      1.00000
     12      -1.4086      1.00000
     13      -0.8604      1.00000
     14      -0.8604      1.00000
     15      -0.4951      1.00000
     16      -0.4951      1.00000
     17       0.8508      1.00000
     18       0.8508      1.00000
     19       1.0600      1.00000
     20       1.0600      1.00000
     21       2.4888      1.00000
     22       2.4888      1.00000
     23       3.8859      1.00000
     24       3.8859      1.00000
     25       4.1556      1.00000
     26       4.1556      1.00000
     27       4.9921      1.00000
     28       4.9921      1.00000
     29       6.1729      0.00000
     30       6.1729      0.00000
     31       8.2083      0.00000
     32       8.2083      0.00000
     33      15.3610      0.00000
     34      15.3610      0.00000
     35      18.1553      0.00000
     36      18.1553      0.00000

 k-point    10 :       0.2500    0.2500    0.2500
  band No.  band energies     occupation 
      1     -46.4570      1.00000
      2     -46.4543      1.00000
      3     -46.3227      1.00000
      4     -46.3220      1.00000
      5     -46.1580      1.00000
      6     -46.1576      1.00000
      7     -13.2562      1.00000
      8     -12.7007      1.00000
      9     -12.5023      1.00000
     10     -12.3076      1.00000
     11      -2.0887      1.00000
     12      -1.4042      1.00000
     13      -1.2427      1.00000
     14      -0.7994      1.00000
     15      -0.4392      1.00000
     16       0.2522      1.00000
     17       0.5354      1.00000
     18       1.0557      1.00000
     19       1.2099      1.00000
     20       1.8558      1.00000
     21       2.0803      1.00000
     22       2.9400      1.00000
     23       3.0459      1.00000
     24       3.9164      1.00000
     25       4.0036      1.00000
     26       4.2248      1.00000
     27       5.0878      1.00000
     28       5.1758      1.00000
     29       6.1210      0.00000
     30       6.9312      0.00000
     31       7.2056      0.00000
     32       8.4201      0.00000
     33      14.4685      0.00000
     34      16.9383      0.00000
     35      17.0776      0.00000
     36      18.3767      0.00000

 k-point    11 :       0.5000    0.2500    0.2500
  band No.  band energies     occupation 
      1     -46.4557      1.00000
      2     -46.4557      1.00000
      3     -46.3224      1.00000
      4     -46.3224      1.00000
      5     -46.1579      1.00000
      6     -46.1579      1.00000
      7     -12.9792      1.00000
      8     -12.9792      1.00000
      9     -12.4085      1.00000
     10     -12.4085      1.00000
     11      -1.7831      1.00000
     12      -1.7831      1.00000
     13      -1.1585      1.00000
     14      -1.1585      1.00000
     15      -0.0071      1.00000
     16      -0.0071      1.00000
     17       1.0791      1.00000
     18       1.0791      1.00000
     19       1.4011      1.00000
     20       1.4011      1.00000
     21       2.3609      1.00000
     22       2.3609      1.00000
     23       3.5425      1.00000
     24       3.5425      1.00000
     25       4.0439      1.00000
     26       4.0439      1.00000
     27       5.0943      1.00000
     28       5.0943      1.00000
     29       6.5740      0.00000
     30       6.5740      0.00000
     31       7.8783      0.00000
     32       7.8783      0.00000
     33      15.6719      0.00000
     34      15.6719      0.00000
     35      17.8110      0.00000
     36      17.8110      0.00000

 k-point    12 :       0.5000    0.5000    0.2500
  band No.  band energies     occupation 
      1     -46.4555      1.00000
      2     -46.4555      1.00000
      3     -46.3228      1.00000
      4     -46.3228      1.00000
      5     -46.1577      1.00000
      6     -46.1577      1.00000
      7     -13.0016      1.00000
      8     -13.0016      1.00000
      9     -12.3672      1.00000
     10     -12.3672      1.00000
     11      -2.0631      1.00000
     12      -2.0631      1.00000
     13      -1.3361      1.00000
     14      -1.3361      1.00000
     15       0.5930      1.00000
     16       0.5930      1.00000
     17       1.1517      1.00000
     18       1.1517      1.00000
     19       1.2909      1.00000
     20       1.2909      1.00000
     21       2.8167      1.00000
     22       2.8167      1.00000
     23       2.9071      1.00000
     24       2.9071      1.00000
     25       4.0478      1.00000
     26       4.0478      1.00000
     27       5.1463      1.00000
     28       5.1463      1.00000
     29       7.2128      0.00000
     30       7.2128      0.00000
     31       7.2347      0.00000
     32       7.2347      0.00000
     33      16.3171      0.00000
     34      16.3171      0.00000
     35      16.8496      0.00000
     36      16.8496      0.00000

 k-point    13 :       0.0000    0.0000    0.5000
  band No.  band energies     occupation 
      1     -46.4864      1.00000
      2     -46.4864      1.00000
      3     -46.3202      1.00000
      4     -46.3202      1.00000
      5     -46.1535      1.00000
      6     -46.1535      1.00000
      7     -12.7956      1.00000
      8     -12.7956      1.00000
      9     -12.4358      1.00000
     10     -12.4358      1.00000
     11      -1.6212      1.00000
     12      -1.6212      1.00000
     13      -0.3900      1.00000
     14      -0.3900      1.00000
     15       0.0512      1.00000
     16       0.0512      1.00000
     17       0.5649      1.00000
     18       0.5649      1.00000
     19       0.9617      1.00000
     20       0.9617      1.00000
     21       2.6098      1.00000
     22       2.6098      1.00000
     23       2.6733      1.00000
     24       2.6733      1.00000
     25       4.6170      1.00000
     26       4.6170      1.00000
     27       5.4264      0.99574
     28       5.4264      0.99574
     29       6.4968      0.00000
     30       6.4968      0.00000
     31       6.7529      0.00000
     32       6.7529      0.00000
     33      16.3933      0.00000
     34      16.3933      0.00000
     35      19.0271      0.00000
     36      19.0271      0.00000

 k-point    14 :       0.2500    0.0000    0.5000
  band No.  band energies     occupation 
      1     -46.4866      1.00000
      2     -46.4866      1.00000
      3     -46.3200      1.00000
      4     -46.3200      1.00000
      5     -46.1535      1.00000
      6     -46.1535      1.00000
      7     -12.7783      1.00000
      8     -12.7783      1.00000
      9     -12.4498      1.00000
     10     -12.4498      1.00000
     11      -1.6038      1.00000
     12      -1.6038      1.00000
     13      -0.9431      1.00000
     14      -0.9431      1.00000
     15       0.3612      1.00000
     16       0.3612      1.00000
     17       0.9241      1.00000
     18       0.9241      1.00000
     19       1.4840      1.00000
     20       1.4840      1.00000
     21       2.2602      1.00000
     22       2.2602      1.00000
     23       2.6340      1.00000
     24       2.6340      1.00000
     25       4.2093      1.00000
     26       4.2093      1.00000
     27       5.3912      0.99986
[...]
      2     -46.4876      1.00000
      3     -46.3206      1.00000
      4     -46.3206      1.00000
      5     -46.1545      1.00000
      6     -46.1545      1.00000
      7     -12.7603      1.00000
      8     -12.7603      1.00000
      9     -12.4654      1.00000
     10     -12.4654      1.00000
     11      -1.6687      1.00000
     12      -1.6687      1.00000
     13      -1.1233      1.00000
     14      -1.1233      1.00000
     15       0.6644      1.00000
     16       0.6644      1.00000
     17       1.0745      1.00000
     18       1.0745      1.00000
     19       1.7517      1.00000
     20       1.7517      1.00000
     21       2.2344      1.00000
     22       2.2344      1.00000
     23       2.6277      1.00000
     24       2.6277      1.00000
     25       3.6853      1.00000
     26       3.6853      1.00000
     27       4.9087      1.00000
     28       4.9087      1.00000
     29       5.6305      0.00084
     30       5.6305      0.00084
     31       8.6278      0.00000
     32       8.6278      0.00000
     33      16.5853      0.00000
     34      16.5853      0.00000
     35      17.8803      0.00000
     36      17.8803      0.00000

 k-point    16 :       0.2500    0.2500    0.5000
  band No.  band energies     occupation 
      1     -46.4876      1.00000
      2     -46.4872      1.00000
      3     -46.3210      1.00000
      4     -46.3206      1.00000
      5     -46.1546      1.00000
      6     -46.1545      1.00000
      7     -12.7702      1.00000
      8     -12.7336      1.00000
      9     -12.4886      1.00000
     10     -12.4552      1.00000
     11      -1.6717      1.00000
     12      -1.3486      1.00000
     13      -1.1094      1.00000
     14      -0.8655      1.00000
     15      -0.5033      1.00000
     16       0.5713      1.00000
     17       1.0731      1.00000
     18       1.2156      1.00000
     19       1.3242      1.00000
     20       1.7462      1.00000
     21       1.9441      1.00000
     22       2.6237      1.00000
     23       2.6381      1.00000
     24       2.8629      1.00000
     25       3.8677      1.00000
     26       4.5895      1.00000
     27       4.8319      1.00000
     28       5.0472      1.00000
     29       5.6560      0.00006
     30       6.5016      0.00000
     31       7.2130      0.00000
     32       8.5206      0.00000
     33      16.3822      0.00000
     34      16.6015      0.00000
     35      17.9970      0.00000
     36      18.6444      0.00000

 k-point    17 :       0.5000    0.2500    0.5000
  band No.  band energies     occupation 
      1     -46.4874      1.00000
      2     -46.4874      1.00000
      3     -46.3209      1.00000
      4     -46.3209      1.00000
      5     -46.1546      1.00000
      6     -46.1546      1.00000
      7     -12.7232      1.00000
      8     -12.7232      1.00000
      9     -12.4952      1.00000
     10     -12.4952      1.00000
     11      -1.4729      1.00000
     12      -1.4729      1.00000
     13      -1.1561      1.00000
     14      -1.1561      1.00000
     15       0.0732      1.00000
     16       0.0732      1.00000
     17       0.8094      1.00000
     18       0.8094      1.00000
     19       1.6593      1.00000
     20       1.6593      1.00000
     21       2.6410      1.00000
     22       2.6410      1.00000
     23       2.8903      1.00000
     24       2.8903      1.00000
     25       3.9650      1.00000
     26       3.9650      1.00000
     27       5.3546      1.00000
     28       5.3546      1.00000
     29       5.5305      0.37641
     30       5.5305      0.37641
     31       8.1703      0.00000
     32       8.1703      0.00000
     33      16.6123      0.00000
     34      16.6123      0.00000
     35      17.5190      0.00000
     36      17.5190      0.00000

 k-point    18 :       0.5000    0.5000    0.5000
  band No.  band energies     occupation 
      1     -46.4872      1.00000
      2     -46.4872      1.00000
      3     -46.3211      1.00000
      4     -46.3211      1.00000
      5     -46.1547      1.00000
      6     -46.1547      1.00000
      7     -12.6715      1.00000
      8     -12.6715      1.00000
      9     -12.5395      1.00000
     10     -12.5395      1.00000
     11      -1.2084      1.00000
     12      -1.2084      1.00000
     13      -1.0656      1.00000
     14      -1.0656      1.00000
     15      -0.5820      1.00000
     16      -0.5820      1.00000
     17       0.5853      1.00000
     18       0.5853      1.00000
     19       1.6712      1.00000
     20       1.6712      1.00000
     21       2.6522      1.00000
     22       2.6522      1.00000
     23       3.2711      1.00000
     24       3.2711      1.00000
     25       4.6363      1.00000
     26       4.6363      1.00000
     27       4.7355      1.00000
     28       4.7355      1.00000
     29       6.4971      0.00000
     30       6.4971      0.00000
     31       7.3274      0.00000
     32       7.3274      0.00000
     33      16.4101      0.00000
     34      16.4101      0.00000
     35      17.4743      0.00000
     36      17.4743      0.00000


--------------------------------------------------------------------------------------------------------


 soft charge-density along one line, spin component            1
         0         1         2         3         4         5         6         7         8         9
 total charge-density along one line
 
 soft charge-density along one line, spin component            2
         0         1         2         3         4         5         6         7         8         9
 total charge-density along one line
 
 pseudopotential strength for first ion, spin component:            1
-40.501  -0.000   0.041  10.122   0.000  -0.023   0.000   0.000
 -0.000 -40.608  -0.000   0.000  10.181   0.000   0.000   0.000
  0.041  -0.000 -40.501  -0.023   0.000  10.122   0.000   0.000
 10.122   0.000  -0.023   7.362  -0.000   0.006  -0.000  -0.000
  0.000  10.181   0.000  -0.000   7.350  -0.000  -0.000  -0.000
 -0.023   0.000  10.122   0.006  -0.000   7.362  -0.000  -0.000
  0.000   0.000   0.000  -0.000  -0.000  -0.000  -5.077  -0.000
  0.000   0.000   0.000  -0.000  -0.000  -0.000  -0.000  -5.105
 -0.000   0.000  -0.000   0.000  -0.000   0.000  -0.085   0.000
  0.000   0.000   0.000  -0.000  -0.000  -0.000  -0.000  -0.040
 -0.000  -0.000   0.000   0.000   0.000  -0.000  -0.000   0.000
  0.000   0.000   0.000  -0.000  -0.000  -0.000  -5.041  -0.000
  0.000   0.000   0.000  -0.000  -0.000  -0.000  -0.000  -5.072
 -0.000   0.000  -0.000   0.000  -0.000   0.000  -0.095   0.000
  0.000   0.000   0.000  -0.000  -0.000  -0.000  -0.000  -0.045
 -0.000  -0.000   0.000   0.000   0.000  -0.000  -0.000   0.000
 -0.000  -0.000  -0.000  -0.000  -0.000   0.000  -0.015   0.000
 -0.000  -0.000  -0.000  -0.000  -0.000  -0.000  -0.030   0.000
 pseudopotential strength for first ion, spin component:            2
-40.502  -0.000   0.041  10.122   0.000  -0.023   0.000   0.000
 -0.000 -40.609  -0.000   0.000  10.181   0.000   0.000   0.000
  0.041  -0.000 -40.502  -0.023   0.000  10.122   0.000   0.000
 10.122   0.000  -0.023   7.362  -0.000   0.006  -0.000  -0.000
  0.000  10.181   0.000  -0.000   7.350  -0.000  -0.000  -0.000
 -0.023   0.000  10.122   0.006  -0.000   7.362  -0.000  -0.000
  0.000   0.000   0.000  -0.000  -0.000  -0.000  -5.078  -0.000
  0.000   0.000   0.000  -0.000  -0.000  -0.000  -0.000  -5.106
 -0.000   0.000  -0.000   0.000  -0.000   0.000  -0.085   0.000
  0.000   0.000   0.000  -0.000  -0.000  -0.000  -0.000  -0.041
 -0.000  -0.000   0.000   0.000   0.000  -0.000  -0.000   0.000
  0.000   0.000   0.000  -0.000  -0.000  -0.000  -5.041  -0.000
  0.000   0.000   0.000  -0.000  -0.000  -0.000  -0.000  -5.072
 -0.000   0.000  -0.000   0.000  -0.000   0.000  -0.095   0.000
  0.000   0.000   0.000  -0.000  -0.000  -0.000  -0.000  -0.045
 -0.000  -0.000   0.000   0.000   0.000  -0.000  -0.000   0.000
 -0.000  -0.000  -0.000  -0.000  -0.000  -0.000  -0.015   0.000
 -0.000  -0.000  -0.000  -0.000  -0.000  -0.000  -0.030   0.000
 total augmentation occupancy for first ion, spin component:            1
  1.995   0.000   0.000  -0.035  -0.000   0.001   0.000   0.000   0.000   0.000   0.000   0.000   0.000   0.000   0.000   0.000
  0.000   1.995   0.000  -0.000  -0.036  -0.000   0.000   0.000   0.000   0.000   0.000   0.000   0.000   0.000   0.000   0.000
  0.000   0.000   1.995   0.001  -0.000  -0.035   0.000   0.000   0.000   0.000   0.000   0.000   0.000   0.000   0.000   0.000
 -0.035  -0.000   0.001   0.173   0.000  -0.020   0.000   0.000   0.000   0.000   0.000   0.000   0.000   0.000   0.000   0.000
 -0.000  -0.036  -0.000   0.000   0.204   0.000   0.000   0.000   0.000   0.000   0.000   0.000   0.000   0.000   0.000   0.000
  0.001  -0.000  -0.035  -0.020   0.000   0.173   0.000   0.000   0.000   0.000   0.000   0.000   0.000   0.000   0.000   0.000
  0.000   0.000   0.000   0.000   0.000   0.000   3.977   0.000   1.494   0.000   0.000  -1.960  -0.000  -1.209  -0.000  -0.000
  0.000   0.000   0.000   0.000   0.000   0.000   0.000   3.510   0.000   1.276  -0.000  -0.000  -1.651  -0.000  -1.007   0.000
  0.000   0.000   0.000   0.000   0.000   0.000   1.494   0.000   3.289   0.000   0.000  -1.179  -0.000  -1.442  -0.000  -0.000
  0.000   0.000   0.000   0.000   0.000   0.000   0.000   1.276   0.000   3.510   0.000  -0.000  -1.007  -0.000  -1.651  -0.000
  0.000   0.000   0.000   0.000   0.000   0.000   0.000  -0.000   0.000   0.000   2.111  -0.000   0.000  -0.000  -0.000  -0.599
  0.000   0.000   0.000   0.000   0.000   0.000  -1.960  -0.000  -1.179  -0.000  -0.000   1.475   0.000   0.594   0.000   0.000
  0.000   0.000   0.000   0.000   0.000   0.000  -0.000  -1.651  -0.000  -1.007   0.000   0.000   1.422   0.000   0.446  -0.000
  0.000   0.000   0.000   0.000   0.000   0.000  -1.209  -0.000  -1.442  -0.000  -0.000   0.594   0.000   1.355   0.000   0.000
  0.000   0.000   0.000   0.000   0.000   0.000  -0.000  -1.007  -0.000  -1.651  -0.000   0.000   0.446   0.000   1.422   0.000
  0.000   0.000   0.000   0.000   0.000   0.000  -0.000   0.000  -0.000  -0.000  -0.599   0.000  -0.000   0.000   0.000   1.052
  0.000   0.000   0.000   0.000   0.000   0.000  -0.201  -0.000   0.213  -0.000  -0.000   0.253   0.000  -0.301   0.000   0.000
  0.000   0.000   0.000   0.000   0.000   0.000   0.020   0.000  -0.010   0.000   0.000  -0.034  -0.000   0.037  -0.000  -0.000
 total augmentation occupancy for first ion, spin component:            2
 -0.000   0.000   0.000  -0.000   0.000   0.000   0.000   0.000   0.000   0.000   0.000   0.000   0.000   0.000   0.000   0.000
  0.000   0.000   0.000   0.000   0.000   0.000   0.000   0.000   0.000   0.000   0.000   0.000   0.000   0.000   0.000   0.000
  0.000   0.000  -0.000   0.000   0.000  -0.000   0.000   0.000   0.000   0.000   0.000   0.000   0.000   0.000   0.000   0.000
 -0.000   0.000   0.000  -0.000   0.000   0.000   0.000   0.000   0.000   0.000   0.000   0.000   0.000   0.000   0.000   0.000
  0.000   0.000   0.000   0.000   0.000   0.000   0.000   0.000   0.000   0.000   0.000   0.000   0.000   0.000   0.000   0.000
  0.000   0.000  -0.000   0.000   0.000  -0.000   0.000   0.000   0.000   0.000   0.000   0.000   0.000   0.000   0.000   0.000
  0.000   0.000   0.000   0.000   0.000   0.000   0.000   0.000   0.000   0.000   0.000   0.000   0.000   0.000   0.000  -0.000
  0.000   0.000   0.000   0.000   0.000   0.000   0.000   0.000   0.000   0.000  -0.000   0.000   0.000   0.000   0.000  -0.000
  0.000   0.000   0.000   0.000   0.000   0.000   0.000   0.000   0.000   0.000  -0.000   0.000   0.000  -0.000   0.000   0.000
  0.000   0.000   0.000   0.000   0.000   0.000   0.000   0.000   0.000   0.000   0.000   0.000   0.000   0.000   0.000   0.000
  0.000   0.000   0.000   0.000   0.000   0.000   0.000  -0.000  -0.000   0.000   0.000  -0.000  -0.000  -0.000   0.000   0.000
  0.000   0.000   0.000   0.000   0.000   0.000   0.000   0.000   0.000   0.000  -0.000  -0.000  -0.000  -0.000  -0.000   0.000
  0.000   0.000   0.000   0.000   0.000   0.000   0.000   0.000   0.000   0.000  -0.000  -0.000  -0.001  -0.000  -0.000   0.000
  0.000   0.000   0.000   0.000   0.000   0.000   0.000   0.000  -0.000   0.000  -0.000  -0.000  -0.000  -0.000  -0.000  -0.000
  0.000   0.000   0.000   0.000   0.000   0.000   0.000   0.000   0.000   0.000   0.000  -0.000  -0.000  -0.000  -0.001  -0.000
  0.000   0.000   0.000   0.000   0.000   0.000  -0.000  -0.000   0.000   0.000   0.000   0.000   0.000  -0.000  -0.000  -0.001
  0.000   0.000   0.000   0.000   0.000   0.000   0.000   0.000  -0.000   0.000   0.000   0.000   0.000   0.000   0.000   0.000
  0.000   0.000   0.000   0.000   0.000   0.000  -0.000  -0.000   0.000  -0.000  -0.000   0.000   0.000   0.000   0.000   0.000


------------------------ aborting loop because EDIFF is reached ----------------------------------------





 total charge

# of ion       s       p       d       tot
------------------------------------------
    1        0.334   6.323   7.659  14.316
    2        0.334   6.323   7.659  14.316
    3        1.575   3.373   0.000   4.948
    4        1.575   3.373   0.000   4.948
    5        1.575   3.373   0.000   4.948
    6        1.575   3.373   0.000   4.948
--------------------------------------------------
tot          6.969  26.138  15.317  48.425



 magnetization (x)

# of ion       s       p       d       tot
------------------------------------------
    1       -0.000  -0.000  -0.001  -0.001
    2       -0.000  -0.000  -0.001  -0.001
    3       -0.000  -0.000   0.000  -0.000
    4       -0.000  -0.000   0.000  -0.000
    5       -0.000  -0.000   0.000  -0.000
    6       -0.000  -0.000   0.000  -0.000
--------------------------------------------------
tot         -0.000  -0.001  -0.002  -0.002
 
    CHARGE:  cpu time      0.1417: real time      0.1416
    FORLOC:  cpu time      0.0015: real time      0.0015
    FORNL :  cpu time      0.3877: real time      0.3878
    FORCOR:  cpu time      0.6305: real time      0.6305
    FORHAR:  cpu time      0.0055: real time      0.0055
    MIXING:  cpu time      0.0016: real time      0.0016
    OFIELD:  cpu time      0.0000: real time      0.0000

 ---------------------------------------------------------------------------------------------

         DFTD3 V3.0 Rev 1        
 DF pbe       
 parameters
 k1-k3        =   16.0000    1.3333   -4.0000
 Edisp (eV)   -1.41402

 E6    (eV) :    -0.8848
 E8    (eV) :    -0.5293
 % E8        : 37.43
    FORVDW:  cpu time      0.0121: real time      0.0121

 VOLUME and BASIS-vectors are now :
 -----------------------------------------------------------------------------
  energy-cutoff  :      520.00
  volume of cell :       64.34
      direct lattice vectors                 reciprocal lattice vectors
     4.522230460  0.000000000  0.000000000     0.221129818 -0.000000000  0.000000000
     0.000000000  4.522230460  0.000000000     0.000000000  0.221129818  0.000000000
     0.000000000  0.000000000  3.146273630    -0.000000000 -0.000000000  0.317836310

  length of vectors
     4.522230460  4.522230460  3.146273630     0.221129818  0.221129818  0.317836310


 FORCES acting on ions
    electron-ion (+dipol)            ewald-force                    non-local-force                 convergence-correction
 -----------------------------------------------------------------------------------------------
   0.206E-11 0.726E-11 0.681E-11   0.284E-13 0.000E+00 0.158E-13   0.146E-23 0.000E+00 0.000E+00   -.328E-13 -.845E-15 -.311E-13
   0.260E-13 0.180E-13 -.128E-11   0.284E-13 0.114E-12 -.100E-13   0.230E-23 0.000E+00 0.000E+00   0.509E-13 0.594E-13 -.489E-13
   0.376E+02 -.376E+02 0.573E-11   -.386E+02 0.386E+02 0.163E-13   0.102E+01 -.102E+01 0.694E-17   -.552E-03 0.552E-03 -.212E-14
   -.376E+02 0.376E+02 0.103E-11   0.386E+02 -.386E+02 -.574E-14   -.102E+01 0.102E+01 -.694E-17   0.552E-03 -.552E-03 0.724E-14
   0.376E+02 0.376E+02 -.817E-08   -.386E+02 -.386E+02 0.191E-12   0.102E+01 0.102E+01 0.125E-15   -.552E-03 -.552E-03 -.294E-11
   -.376E+02 -.376E+02 0.816E-08   0.386E+02 0.386E+02 -.209E-12   -.102E+01 -.102E+01 -.125E-15   0.552E-03 0.552E-03 0.296E-11
 -----------------------------------------------------------------------------------------------
   -.373E-12 0.107E-10 0.219E-11   -.711E-14 0.355E-13 -.172E-14   0.000E+00 0.000E+00 0.000E+00   0.187E-13 0.250E-13 -.519E-13
 
 
 POSITION                                       TOTAL-FORCE (eV/Angst)
 -----------------------------------------------------------------------------------
      2.26112      2.26112      1.57314         0.000000      0.000000     -0.000000
      0.00000      0.00000      0.00000         0.000000      0.000000     -0.000000
      3.65465      0.86758      1.57314        -0.000279      0.000279     -0.000000
      0.86758      3.65465      1.57314         0.000279     -0.000279      0.000000
      1.39353      1.39353      0.00000        -0.000279     -0.000279     -0.000000
      3.12870      3.12870      0.00000         0.000279      0.000279      0.000000
 -----------------------------------------------------------------------------------
    total drift:                               -0.000000      0.000000      0.000000


--------------------------------------------------------------------------------------------------------



  FREE ENERGIE OF THE ION-ELECTRON SYSTEM (eV)
  ---------------------------------------------------
  free  energy   TOTEN  =       -33.57237263 eV

  energy  without entropy=      -33.56530394  energy(sigma->0) =      -33.56883829
 


--------------------------------------------------------------------------------------------------------


    POTLOK:  cpu time      0.6276: real time      0.6276


--------------------------------------------------------------------------------------------------------


     LOOP+:  cpu time     30.3410: real time     30.7797
    4ORBIT:  cpu time      0.0000: real time      0.0000



 total charge

# of ion       s       p       d       tot
------------------------------------------
    1        0.334   6.323   7.659  14.316
    2        0.334   6.323   7.659  14.316
    3        1.575   3.373   0.000   4.948
    4        1.575   3.373   0.000   4.948
    5        1.575   3.373   0.000   4.948
    6        1.575   3.373   0.000   4.948
--------------------------------------------------
tot          6.969  26.138  15.317  48.425



 magnetization (x)

# of ion       s       p       d       tot
------------------------------------------
    1       -0.000  -0.000  -0.001  -0.001
    2       -0.000  -0.000  -0.001  -0.001
    3       -0.000  -0.000   0.000  -0.000
    4       -0.000  -0.000   0.000  -0.000
    5       -0.000  -0.000   0.000  -0.000
    6       -0.000  -0.000   0.000  -0.000
--------------------------------------------------
tot         -0.000  -0.001  -0.002  -0.002
 

 total amount of memory used by VASP MPI-rank0    65939. kBytes
=======================================================================

   base      :      30000. kBytes
   nonl-proj :       9250. kBytes
   fftplans  :       9397. kBytes
   grid      :       7672. kBytes
   one-center:        186. kBytes
   wavefun   :       9434. kBytes
 
  
  
 General timing and accounting informations for this job:
 ========================================================
  
                  Total CPU time used (sec):       31.958
                            User time (sec):       30.950
                          System time (sec):        1.008
                         Elapsed time (sec):       32.906
  
                   Maximum memory used (kb):      351652.
                   Average memory used (kb):          N/A
  
                          Minor page faults:       259933
                          Major page faults:           12
                 Voluntary context switches:          836
