87
Lattice="11.004690437655821 0.0 0.0 0.0 11.004690437655821 0.0 0.0 0.0 27.781491233325184" Properties=species:S:1:pos:R:3:move_mask:L:1:momenta:R:3:forces:R:3 idx=5185 E_MACE=-432.06934575023786 d_min=1.9707413473279027 d_reactive=4.26884931764987 rank=4 dE_rel_meV=0.3177840676471533 converged=T energy=-432.06934575023786 stress="0.007805564247334795 8.58773499821479e-06 0.00014771704935038612 8.58773499821479e-06 0.007441983123022006 -0.00015787233844683036 0.00014771704935038612 -0.00015787233844683036 -0.0021652168301864467" pbc="T T T"
Pd       0.00000000       0.00000000       1.50000000  F       0.00000000       0.00000000       0.00000000      -0.00155196       0.00064209      -0.22561419
Pd       4.14009366       6.87402183       7.43412568  T       0.00000000       0.00000000       0.00000000       0.00361201       0.00045505      -0.01083478
Pd       1.37774009       6.87615220       7.42159723  T       0.00000000       0.00000000       0.00000000      -0.01652360       0.00099080       0.01029117
Pd       9.63017085       4.11366069       7.39904372  T       0.00000000       0.00000000       0.00000000       0.01007760       0.01331588       0.00999907
Pd       6.86916163       4.13194546       7.43236051  T       0.00000000       0.00000000       0.00000000      -0.00712144      -0.00142657       0.00149930
Pd       4.14611288       4.12986808       7.43098312  T       0.00000000       0.00000000       0.00000000      -0.00161117      -0.00347254       0.01465856
Pd       1.38879349       4.11847196       7.40774706  T       0.00000000       0.00000000       0.00000000      -0.00450195       0.00436037       0.00252968
Pd       9.63302085       1.36368247       7.40290211  T       0.00000000       0.00000000       0.00000000       0.00001258      -0.00132863      -0.00189156
Pd       6.89245305       6.87849931       7.43440901  T       0.00000000       0.00000000       0.00000000      -0.00738166       0.00782928       0.00395316
Pd       6.87944575       1.36693582       7.41104427  T       0.00000000       0.00000000       0.00000000      -0.00790243      -0.00295593       0.00264837
Pd       1.38139541       1.36304350       7.40899588  T       0.00000000       0.00000000       0.00000000      -0.00168715      -0.00142958      -0.00146317
Pd       8.25866167       8.25261815       5.43434328  T       0.00000000       0.00000000       0.00000000      -0.01635842      -0.00147050      -0.00587558
Pd       5.51158827       8.24797876       5.43741118  T       0.00000000       0.00000000       0.00000000      -0.00661382       0.00321023       0.00529928
Pd       2.75954627       8.25312192       5.43896167  T       0.00000000       0.00000000       0.00000000      -0.00084755      -0.00510712      -0.00543514
Pd       0.00459222       8.25022617       5.43020271  T       0.00000000       0.00000000       0.00000000      -0.00707175      -0.00154490       0.00235965
Pd       8.25098983       5.49961012       5.42981917  T       0.00000000       0.00000000       0.00000000      -0.00112603       0.00614588      -0.01182711
Pd       5.50442225       5.50257158       5.42991854  T       0.00000000       0.00000000       0.00000000       0.00050084       0.00967346      -0.00639899
Pd       4.13013054       1.37042846       7.41077724  T       0.00000000       0.00000000       0.00000000      -0.00069131       0.00211393       0.00557863
Pd       2.76291451       5.49983955       5.43023268  T       0.00000000       0.00000000       0.00000000      -0.00083743      -0.00104380      -0.00775154
Pd       9.63882112       6.86981988       7.41447623  T       0.00000000       0.00000000       0.00000000      -0.00250186      -0.00086280       0.00139579
Pd       4.14783029       9.61419043       7.44352722  T       0.00000000       0.00000000       0.00000000       0.00532133       0.00020039      -0.00690891
Pd       2.74229914       8.25302027       9.40976514  T       0.00000000       0.00000000       0.00000000      -0.00302801      -0.00403448      -0.00159474
Pd       0.02323836       8.23112137       9.50435977  T       0.00000000       0.00000000       0.00000000       0.01016765       0.01187031       0.00244624
Pd       8.29026590       5.46159243       9.39435415  T       0.00000000       0.00000000       0.00000000      -0.00446260      -0.00062849       0.00897518
Pd       5.51472160       5.42871198       9.46352209  T       0.00000000       0.00000000       0.00000000       0.00316473       0.00954628       0.01458468
Pd       2.74294225       5.48733958       9.40398211  T       0.00000000       0.00000000       0.00000000      -0.00772565      -0.00070996       0.00519572
Pd       0.01262105       5.45687473       9.39748508  T       0.00000000       0.00000000       0.00000000       0.00316613       0.00380063      -0.00467628
Pd       8.25753474       2.73805083       9.40304551  T       0.00000000       0.00000000       0.00000000       0.00626708       0.00609480       0.00121354
Pd       1.37733676       9.61284031       7.43048780  T       0.00000000       0.00000000       0.00000000      -0.00766821       0.00929629       0.00105468
Pd       5.50699132       2.71874794       9.41307542  T       0.00000000       0.00000000       0.00000000       0.00102136       0.00052288      -0.00324164
Pd       0.00619440       2.73348151       9.39899533  T       0.00000000       0.00000000       0.00000000      -0.00667346       0.01562147       0.00196060
Pd       8.25933450       0.02111640       9.40581558  T       0.00000000       0.00000000       0.00000000      -0.00103896       0.00799117      -0.00215470
Pd       5.50438739       0.01857027       9.41718024  T       0.00000000       0.00000000       0.00000000       0.01245570      -0.00193442       0.00157664
Pd       2.75610010      -0.00070998       9.41148575  T       0.00000000       0.00000000       0.00000000      -0.00472388       0.00537121       0.01004730
Pd       0.00600708       0.00737120       9.40163549  T       0.00000000       0.00000000       0.00000000      -0.00181114       0.00773091       0.00447132
Pd       9.63154177       9.62171405       7.41945916  T       0.00000000       0.00000000       0.00000000      -0.00009787       0.00657018       0.00389822
Pd       6.88069047       9.60751401       7.45329442  T       0.00000000       0.00000000       0.00000000      -0.00366192      -0.00155037       0.00122192
Pd       2.75487978       2.73920725       9.40578670  T       0.00000000       0.00000000       0.00000000      -0.00407982       0.00479344       0.00790658
Pd       0.00735109       5.50004389       5.42481368  T       0.00000000       0.00000000       0.00000000      -0.00326460       0.00225015       0.00378122
Pd       8.24993564       2.74774873       5.42783206  T       0.00000000       0.00000000       0.00000000       0.00752265      -0.00748726      -0.00323416
Pd       5.50466358       2.75341768       5.43341028  T       0.00000000       0.00000000       0.00000000      -0.00248341      -0.01030554       0.00198197
Pd       1.37558630       1.37558630       3.44537281  F       0.00000000       0.00000000       0.00000000       0.00234856      -0.01127600       0.21405685
Pd       8.25351783       8.25351783       1.50000000  F       0.00000000       0.00000000       0.00000000      -0.00020393       0.00001464      -0.22060476
Pd       5.50234522       8.25351783       1.50000000  F       0.00000000       0.00000000       0.00000000      -0.00006140       0.00063904      -0.22209429
Pd       2.75117261       8.25351783       1.50000000  F       0.00000000       0.00000000       0.00000000      -0.00192227      -0.00005058      -0.22356679
Pd       0.00000000       8.25351783       1.50000000  F       0.00000000       0.00000000       0.00000000      -0.00069478       0.00042040      -0.22122589
Pd       8.25351783       5.50234522       1.50000000  F       0.00000000       0.00000000       0.00000000      -0.00025489       0.00153637      -0.22542850
Pd       5.50234522       5.50234522       1.50000000  F       0.00000000       0.00000000       0.00000000       0.00014904      -0.00073595      -0.22581273
Pd       4.12675891       1.37558630       3.44537281  F       0.00000000       0.00000000       0.00000000       0.01188309       0.00432903       0.22225871
Pd       2.75117261       5.50234522       1.50000000  F       0.00000000       0.00000000       0.00000000      -0.00187025       0.00050507      -0.22707222
Pd       8.25351783       2.75117261       1.50000000  F       0.00000000       0.00000000       0.00000000       0.00066605       0.00147144      -0.22713221
Pd       5.50234522       2.75117261       1.50000000  F       0.00000000       0.00000000       0.00000000      -0.00096079       0.00114694      -0.22528777
Pd       2.75117261       2.75117261       1.50000000  F       0.00000000       0.00000000       0.00000000      -0.00103964       0.00165544      -0.22550840
Pd       0.00000000       2.75117261       1.50000000  F       0.00000000       0.00000000       0.00000000      -0.00109754       0.00060054      -0.22743870
Pd       8.25351783       0.00000000       1.50000000  F       0.00000000       0.00000000       0.00000000       0.00091566      -0.00023646      -0.22610006
Pd       5.50234522       0.00000000       1.50000000  F       0.00000000       0.00000000       0.00000000       0.00039531       0.00094170      -0.22746041
Pd       2.75117261       0.00000000       1.50000000  F       0.00000000       0.00000000       0.00000000      -0.00266143       0.00050862      -0.22823242
Pd       0.00000000       5.50234522       1.50000000  F       0.00000000       0.00000000       0.00000000      -0.00126347       0.00096212      -0.22647285
Pd       6.87793152       1.37558630       3.44537281  F       0.00000000       0.00000000       0.00000000      -0.00763410      -0.01014551       0.23156206
Pd       9.62910413       1.37558630       3.44537281  F       0.00000000       0.00000000       0.00000000       0.00482910      -0.01199127       0.21485710
Pd       1.37558630       4.12675891       3.44537281  F       0.00000000       0.00000000       0.00000000       0.01583701      -0.00345986       0.22278313
Pd       2.75471409       2.74910774       5.42964351  T       0.00000000       0.00000000       0.00000000       0.00865845      -0.00473001       0.00066505
Pd       0.00282069       2.74694483       5.42756780  T       0.00000000       0.00000000       0.00000000       0.00117433      -0.00617279      -0.00403354
Pd       8.24994524      -0.00775733       5.42933271  T       0.00000000       0.00000000       0.00000000       0.00282254       0.00163057      -0.00478959
Pd       5.50235232      -0.00746216       5.43262512  T       0.00000000       0.00000000       0.00000000       0.00305006      -0.00087607      -0.00009462
Pd       2.75879074      -0.00537863       5.43000430  T       0.00000000       0.00000000       0.00000000      -0.00384471       0.00088784      -0.00397024
Pd       0.00545317      -0.00896003       5.42740691  T       0.00000000       0.00000000       0.00000000       0.00082854      -0.00026048       0.00300902
Pd       9.62910413       9.62910413       3.44537281  F       0.00000000       0.00000000       0.00000000       0.00022728      -0.01104809       0.22221518
Pd       6.87793152       9.62910413       3.44537281  F       0.00000000       0.00000000       0.00000000      -0.00162172      -0.01172201       0.22583106
Pd       4.12675891       9.62910413       3.44537281  F       0.00000000       0.00000000       0.00000000       0.01090387      -0.02036677       0.23548030
Pd       1.37558630       9.62910413       3.44537281  F       0.00000000       0.00000000       0.00000000       0.02556477      -0.01888156       0.22959244
Pd       9.62910413       6.87793152       3.44537281  F       0.00000000       0.00000000       0.00000000       0.00100512      -0.00252825       0.22595270
Pd       6.87793152       6.87793152       3.44537281  F       0.00000000       0.00000000       0.00000000       0.01184859       0.00597380       0.22370413
Pd       4.12675891       6.87793152       3.44537281  F       0.00000000       0.00000000       0.00000000       0.00345044       0.01649920       0.22547344
Pd       1.37558630       6.87793152       3.44537281  F       0.00000000       0.00000000       0.00000000       0.02872922       0.00671525       0.23204999
Pd       9.62910413       4.12675891       3.44537281  F       0.00000000       0.00000000       0.00000000      -0.00318756      -0.00594978       0.22516678
Pd       6.87793152       4.12675891       3.44537281  F       0.00000000       0.00000000       0.00000000       0.00135612      -0.00627495       0.21363910
Pd       4.12675891       4.12675891       3.44537281  F       0.00000000       0.00000000       0.00000000       0.00746113      -0.01741500       0.20509855
Pd       5.52296316       8.30582958       9.47809412  T       0.00000000       0.00000000       0.00000000       0.00123925      -0.00752069      -0.00132822
Pd       8.27210221       8.25561724       9.50002013  T       0.00000000       0.00000000       0.00000000      -0.01519250      -0.00502580      -0.00550970
C        9.64987668       8.12418551      10.90912257  T       0.00000000       0.00000000       0.00000000      -0.01880055       0.00169799      -0.00286325
O        9.63167033       8.02598366      12.09240602  T       0.00000000       0.00000000       0.00000000       0.00026426       0.00347495      -0.01273319
O        5.57508446       6.85559182      11.00818282  T       0.00000000       0.00000000       0.00000000      -0.00106213       0.00937852      -0.01090089
C        4.52669271       6.84897265      11.98062712  T       0.00000000       0.00000000       0.00000000       0.01586167      -0.00321252      -0.01844325
H        4.61823329       7.75447118      12.60793468  T       0.00000000       0.00000000       0.00000000      -0.01489468       0.00606268       0.01034011
H        3.51577080       6.84010415      11.50166848  T       0.00000000       0.00000000       0.00000000      -0.00359692       0.00466153       0.01956818
H        4.63045857       5.94569804      12.60953750  T       0.00000000       0.00000000       0.00000000      -0.00784479      -0.00493748       0.00917463
