87
Lattice="11.004690437655821 0.0 0.0 0.0 11.004690437655821 0.0 0.0 0.0 27.781491233325184" Properties=species:S:1:pos:R:3:move_mask:L:1:momenta:R:3:forces:R:3 idx=2031 E_MACE=-430.48070036948405 d_min=2.0614706798429996 d_reactive=5.196294100183262 rank=6335 dE_rel_meV=1588.9631648214504 converged=F energy=-430.48070036948405 stress="0.009394118969374643 4.711469781970725e-05 -0.00061250903162902 4.711469781970725e-05 0.009234835464528829 0.00037839532723430043 -0.00061250903162902 0.00037839532723430043 0.0006723539900824541" pbc="T T T"
Pd       0.00000000       0.00000000       1.50000000  F       0.00000000       0.00000000       0.00000000      -0.00060635       0.00151768      -0.22804495
Pd       4.11508067       6.91008631       7.46406069  T       0.00000000       0.00000000       0.00000000       0.00272609       0.03617414      -0.00356625
Pd       1.34788273       6.86940957       7.43731410  T       0.00000000       0.00000000       0.00000000       0.02503744       0.00047001      -0.02732927
Pd       9.63454408       4.11266242       7.44855467  T       0.00000000       0.00000000       0.00000000      -0.00018833       0.04215959      -0.00310906
Pd       6.87658973       4.15664433       7.43088878  T       0.00000000       0.00000000       0.00000000       0.00427893      -0.00433208       0.01903956
Pd       4.11645716       4.15539950       7.43652395  T       0.00000000       0.00000000       0.00000000       0.01248128       0.01643459      -0.02327434
Pd       1.36216822       4.12000632       7.44511120  T       0.00000000       0.00000000       0.00000000       0.00790152       0.02711957      -0.00581504
Pd       9.66117110       1.38471504       7.44753809  T       0.00000000       0.00000000       0.00000000      -0.04844307      -0.03839278       0.00686408
Pd       6.82990039       6.92776733       7.48191121  T       0.00000000       0.00000000       0.00000000       0.02359792      -0.00280201      -0.03859002
Pd       6.88871051       1.37719216       7.46895224  T       0.00000000       0.00000000       0.00000000      -0.02637723       0.02658722       0.01638434
Pd       1.38009002       1.39218566       7.42204264  T       0.00000000       0.00000000       0.00000000      -0.00749655      -0.02578026       0.04545631
Pd       8.23201499       8.25178413       5.44141466  T       0.00000000       0.00000000       0.00000000       0.04846158       0.03999276       0.02019352
Pd       5.48991939       8.27229831       5.45400746  T       0.00000000       0.00000000       0.00000000       0.02985325      -0.01282551      -0.05203997
Pd       2.75439069       8.25866813       5.45495583  T       0.00000000       0.00000000       0.00000000      -0.03963288      -0.01103299      -0.05391924
Pd      -0.00708266       8.24668158       5.43626140  T       0.00000000       0.00000000       0.00000000      -0.01420953       0.03434127       0.00980076
Pd       8.23817740       5.50795765       5.44245040  T       0.00000000       0.00000000       0.00000000       0.01452593      -0.01140259       0.02767620
Pd       5.49258743       5.52135956       5.44917439  T       0.00000000       0.00000000       0.00000000       0.00340944      -0.00129205       0.00206972
Pd       4.15492978       1.40160803       7.44672344  T       0.00000000       0.00000000       0.00000000       0.00094193      -0.02231956      -0.00972797
Pd       2.74047738       5.51124432       5.44461544  T       0.00000000       0.00000000       0.00000000       0.02092306      -0.01689855      -0.01149831
Pd       9.59334241       6.87560126       7.42816034  T       0.00000000       0.00000000       0.00000000       0.01606915      -0.00229203       0.02402944
Pd       4.13757058       9.65446492       7.46548423  T       0.00000000       0.00000000       0.00000000       0.00609492      -0.00939979      -0.02694256
Pd       2.68664553       8.23493998       9.42154129  T       0.00000000       0.00000000       0.00000000       0.03232645       0.08398395       0.00239855
Pd      -0.03403616       8.24779535       9.43704481  T       0.00000000       0.00000000       0.00000000       0.00001040      -0.02433455      -0.04504712
Pd       8.23046080       5.51013082       9.44212627  T       0.00000000       0.00000000       0.00000000       0.01562667      -0.01229580      -0.04083148
Pd       5.47975153       5.56760957       9.44607621  T       0.00000000       0.00000000       0.00000000       0.00186904      -0.04928861      -0.00399231
Pd       2.72921532       5.50365016       9.44843343  T       0.00000000       0.00000000       0.00000000      -0.02334703      -0.00677139      -0.04359237
Pd      -0.02912543       5.50136697       9.44090309  T       0.00000000       0.00000000       0.00000000       0.01903518       0.01210125      -0.03174314
Pd       8.25741635       2.76396385       9.43523983  T       0.00000000       0.00000000       0.00000000       0.01522451      -0.00066529      -0.00528707
Pd       1.36298052       9.63041491       7.42881695  T       0.00000000       0.00000000       0.00000000       0.01886407       0.01065784      -0.02177258
Pd       5.50852682       2.83938381       9.42694334  T       0.00000000       0.00000000       0.00000000       0.01696562       0.03850862       0.01722571
Pd       0.02586610       2.74142168       9.51486601  T       0.00000000       0.00000000       0.00000000       0.01008811      -0.07998944       0.09091109
Pd       8.31868818       0.00887618       9.42865818  T       0.00000000       0.00000000       0.00000000      -0.05587972       0.01633724       0.00948137
Pd       5.54333125       0.13766574       9.52755280  T       0.00000000       0.00000000       0.00000000      -0.04572483       0.05845078      -0.21049646
Pd       2.72491715       0.04394826       9.37445696  T       0.00000000       0.00000000       0.00000000       0.13568119      -0.06945044       0.08586100
Pd       0.03610572      -0.01183951       9.50633965  T       0.00000000       0.00000000       0.00000000      -0.00941872       0.14685278       0.14229435
Pd       9.64401208       9.64033891       7.43209106  T       0.00000000       0.00000000       0.00000000      -0.03847904      -0.00741382      -0.00322061
Pd       6.88676597       9.65207979       7.45139452  T       0.00000000       0.00000000       0.00000000      -0.06586401       0.00753437       0.03003215
Pd       2.76847863       2.77581610       9.43943594  T       0.00000000       0.00000000       0.00000000       0.01460108       0.00822151      -0.00874877
Pd      -0.01117258       5.50024273       5.44397582  T       0.00000000       0.00000000       0.00000000      -0.00957832      -0.01071449      -0.00250580
Pd       8.25929397       2.75356978       5.44306395  T       0.00000000       0.00000000       0.00000000       0.00161017       0.01957496       0.01679609
Pd       5.51481196       2.75063400       5.45090070  T       0.00000000       0.00000000       0.00000000      -0.01641928       0.07515402      -0.02591856
Pd       1.37558630       1.37558630       3.44537281  F       0.00000000       0.00000000       0.00000000       0.05381296      -0.01011208       0.26901466
Pd       8.25351783       8.25351783       1.50000000  F       0.00000000       0.00000000       0.00000000       0.00161052       0.00027624      -0.22830059
Pd       5.50234522       8.25351783       1.50000000  F       0.00000000       0.00000000       0.00000000      -0.00016245      -0.00161354      -0.22387029
Pd       2.75117261       8.25351783       1.50000000  F       0.00000000       0.00000000       0.00000000      -0.00183969       0.00046895      -0.22646483
Pd       0.00000000       8.25351783       1.50000000  F       0.00000000       0.00000000       0.00000000       0.00057546      -0.00081469      -0.22916523
Pd       8.25351783       5.50234522       1.50000000  F       0.00000000       0.00000000       0.00000000       0.00498526      -0.00187034      -0.22929673
Pd       5.50234522       5.50234522       1.50000000  F       0.00000000       0.00000000       0.00000000       0.00162442      -0.00062354      -0.22522935
Pd       4.12675891       1.37558630       3.44537281  F       0.00000000       0.00000000       0.00000000       0.03400040       0.00577328       0.29276471
Pd       2.75117261       5.50234522       1.50000000  F       0.00000000       0.00000000       0.00000000      -0.00372223      -0.00041049      -0.22690056
Pd       8.25351783       2.75117261       1.50000000  F       0.00000000       0.00000000       0.00000000       0.00214904      -0.00141285      -0.22983324
Pd       5.50234522       2.75117261       1.50000000  F       0.00000000       0.00000000       0.00000000       0.00034757      -0.00178400      -0.22752827
Pd       2.75117261       2.75117261       1.50000000  F       0.00000000       0.00000000       0.00000000      -0.00336182      -0.00258438      -0.22722376
Pd       0.00000000       2.75117261       1.50000000  F       0.00000000       0.00000000       0.00000000      -0.00190253       0.00043008      -0.22834231
Pd       8.25351783       0.00000000       1.50000000  F       0.00000000       0.00000000       0.00000000       0.00096935       0.00016750      -0.22690378
Pd       5.50234522       0.00000000       1.50000000  F       0.00000000       0.00000000       0.00000000      -0.00036073      -0.00014702      -0.22316804
Pd       2.75117261       0.00000000       1.50000000  F       0.00000000       0.00000000       0.00000000      -0.00218809      -0.00054111      -0.22645407
Pd       0.00000000       5.50234522       1.50000000  F       0.00000000       0.00000000       0.00000000      -0.00051072      -0.00239833      -0.22992698
Pd       6.87793152       1.37558630       3.44537281  F       0.00000000       0.00000000       0.00000000       0.01211872       0.00965773       0.28214493
Pd       9.62910413       1.37558630       3.44537281  F       0.00000000       0.00000000       0.00000000      -0.00329235      -0.00218000       0.26223968
Pd       1.37558630       4.12675891       3.44537281  F       0.00000000       0.00000000       0.00000000       0.00835149       0.02130035       0.26128555
Pd       2.76136229       2.75394652       5.43904395  T       0.00000000       0.00000000       0.00000000      -0.01304582       0.04511099      -0.02221656
Pd       0.00661324       2.75388259       5.43087972  T       0.00000000       0.00000000       0.00000000      -0.02582320      -0.01450296       0.02932293
Pd       8.26136351       0.01059119       5.44530614  T       0.00000000       0.00000000       0.00000000       0.00700117      -0.02810733      -0.00698592
Pd       5.51455638       0.00677241       5.45279439  T       0.00000000       0.00000000       0.00000000       0.00476594      -0.00429095      -0.04868130
Pd       2.77342042       0.00258292       5.45059923  T       0.00000000       0.00000000       0.00000000      -0.04275556       0.00088471      -0.03759994
Pd       0.01652902       0.00179731       5.43135738  T       0.00000000       0.00000000       0.00000000      -0.05475645      -0.00018526       0.00561187
Pd       9.62910413       9.62910413       3.44537281  F       0.00000000       0.00000000       0.00000000      -0.01512888      -0.00286458       0.29802384
Pd       6.87793152       9.62910413       3.44537281  F       0.00000000       0.00000000       0.00000000      -0.00306619       0.01738422       0.29196184
Pd       4.12675891       9.62910413       3.44537281  F       0.00000000       0.00000000       0.00000000       0.00140316       0.01283547       0.28599308
Pd       1.37558630       9.62910413       3.44537281  F       0.00000000       0.00000000       0.00000000       0.04227470      -0.01430565       0.29889383
Pd       9.62910413       6.87793152       3.44537281  F       0.00000000       0.00000000       0.00000000      -0.03339668      -0.00415207       0.28324215
Pd       6.87793152       6.87793152       3.44537281  F       0.00000000       0.00000000       0.00000000      -0.04866162       0.01315445       0.27111160
Pd       4.12675891       6.87793152       3.44537281  F       0.00000000       0.00000000       0.00000000      -0.01287786       0.02183363       0.29958050
Pd       1.37558630       6.87793152       3.44537281  F       0.00000000       0.00000000       0.00000000       0.00426060       0.01029659       0.29422524
Pd       9.62910413       4.12675891       3.44537281  F       0.00000000       0.00000000       0.00000000      -0.01149452       0.01521061       0.25458297
Pd       6.87793152       4.12675891       3.44537281  F       0.00000000       0.00000000       0.00000000      -0.02230648       0.01177779       0.30940957
Pd       4.12675891       4.12675891       3.44537281  F       0.00000000       0.00000000       0.00000000       0.01714331       0.01661276       0.31879252
Pd       5.45626059       8.33011811       9.56738366  T       0.00000000       0.00000000       0.00000000       0.01264860      -0.09641658      -0.02637355
Pd       8.24932000       8.26050653       9.43169133  T       0.00000000       0.00000000       0.00000000       0.00639484       0.00080220       0.01439335
C        0.73599037       1.26510912      11.80736383  T       0.00000000       0.00000000       0.00000000      -1.63524473      -0.63155327       2.09979603
O        0.20351020       1.03638514      12.85322039  T       0.00000000       0.00000000       0.00000000       1.42971213       0.61947926      -2.78296874
O        5.29753932      -1.13075965      11.13389794  T       0.00000000       0.00000000       0.00000000      -0.18321165      -0.18454597       0.07031831
C        4.11228094      -1.01470439      11.93548255  T       0.00000000       0.00000000       0.00000000       0.21977767       0.46637064      -0.25386915
H        4.19665708      -1.72359934      12.76340655  T       0.00000000       0.00000000       0.00000000       0.00554152      -0.24803278       0.28053880
H        4.00258623       0.02134353      12.32177371  T       0.00000000       0.00000000       0.00000000       0.16316394      -0.14864599       0.01548656
H        3.16962710      -1.23430846      11.37137153  T       0.00000000       0.00000000       0.00000000      -0.01206254      -0.16821185      -0.14093235
