87
Lattice="11.004690437655821 0.0 0.0 0.0 11.004690437655821 0.0 0.0 0.0 27.781491233325184" Properties=species:S:1:pos:R:3:move_mask:L:1:momenta:R:3:forces:R:3 idx=5527 E_MACE=-431.93718331228865 d_min=1.9475395283233083 d_reactive=3.1373473152386198 rank=3171 dE_rel_meV=132.48022201685217 converged=T energy=-431.93718331228865 stress="0.007641908352030702 -9.890246254391497e-06 -0.0005416391111826086 -9.890246254391497e-06 0.0077383624784134195 2.9778213290311216e-05 -0.0005416391111826086 2.9778213290311216e-05 -0.0020054156954338355" pbc="T T T"
Pd       0.00000000       0.00000000       1.50000000  F       0.00000000       0.00000000       0.00000000       0.00360333      -0.00038151      -0.22669402
Pd       4.10609230       6.87459579       7.43139413  T       0.00000000       0.00000000       0.00000000      -0.00279092      -0.00646154      -0.00281754
Pd       1.34049068       6.86800949       7.42803371  T       0.00000000       0.00000000       0.00000000      -0.00611556       0.01432858       0.00547825
Pd       9.58747799       4.14269898       7.45057473  T       0.00000000       0.00000000       0.00000000       0.01114984       0.00664042       0.01748012
Pd       6.86675018       4.15206750       7.44855161  T       0.00000000       0.00000000       0.00000000       0.00532778       0.00695029       0.00200485
Pd       4.10551646       4.14000022       7.43281631  T       0.00000000       0.00000000       0.00000000       0.00086694       0.00605441      -0.00616643
Pd       1.34009712       4.12858101       7.42759855  T       0.00000000       0.00000000       0.00000000      -0.00571618      -0.00198321       0.00660003
Pd       9.60363038       1.38520673       7.40494668  T       0.00000000       0.00000000       0.00000000       0.02128834      -0.00777555       0.00730258
Pd       6.86466639       6.87818733       7.45331704  T       0.00000000       0.00000000       0.00000000       0.00541359      -0.03076689       0.00259886
Pd       6.84822792       1.39215917       7.40799861  T       0.00000000       0.00000000       0.00000000       0.01013526      -0.01705378       0.00920393
Pd       1.35162856       1.37594159       7.40964959  T       0.00000000       0.00000000       0.00000000       0.01308445      -0.01286468       0.01405876
Pd       8.23829718       8.25100894       5.43193666  T       0.00000000       0.00000000       0.00000000       0.00237418      -0.01073623       0.00351256
Pd       5.48794501       8.25153171       5.42977841  T       0.00000000       0.00000000       0.00000000       0.00142477       0.00070353       0.00410962
Pd       2.73845634       8.25193395       5.42938190  T       0.00000000       0.00000000       0.00000000       0.01134741       0.00172673      -0.02125120
Pd      -0.01339952       8.24638800       5.43389271  T       0.00000000       0.00000000       0.00000000      -0.00480720      -0.01028153      -0.01524675
Pd       8.24115887       5.50870822       5.43598077  T       0.00000000       0.00000000       0.00000000       0.00019872      -0.01019143       0.01222044
Pd       5.49985699       5.50749307       5.44164235  T       0.00000000       0.00000000       0.00000000      -0.00537329      -0.00427283       0.00408934
Pd       4.09693991       1.38374945       7.41186640  T       0.00000000       0.00000000       0.00000000       0.01399746      -0.02050163       0.00561492
Pd       2.74024955       5.50211190       5.43913508  T       0.00000000       0.00000000       0.00000000      -0.01290336      -0.00203551      -0.01729992
Pd       9.58785061       6.86709800       7.45122568  T       0.00000000       0.00000000       0.00000000       0.00311280      -0.01462317       0.00625568
Pd       4.09787712       9.62773852       7.41389238  T       0.00000000       0.00000000       0.00000000       0.02558898       0.01319765       0.01115114
Pd       2.70919297       8.25710712       9.41561218  T       0.00000000       0.00000000       0.00000000       0.02343466       0.00230955      -0.00880614
Pd      -0.03318829       8.27211276       9.40856176  T       0.00000000       0.00000000       0.00000000       0.01694939       0.00762800      -0.00358929
Pd       8.25715228       5.51869908       9.66200945  T       0.00000000       0.00000000       0.00000000      -0.03034649       0.00114585      -0.02399878
Pd       5.37774055       5.49934167       9.43227638  T       0.00000000       0.00000000       0.00000000       0.04287201      -0.00355487       0.02514647
Pd       2.68824222       5.50541917       9.42079299  T       0.00000000       0.00000000       0.00000000      -0.01305437      -0.00686989      -0.01678576
Pd       0.00170673       5.48901991       9.48333981  T       0.00000000       0.00000000       0.00000000       0.02103524       0.01013388      -0.03126738
Pd       8.21769880       2.72079467       9.40748128  T       0.00000000       0.00000000       0.00000000       0.01659024      -0.01773038       0.01129624
Pd       1.35277323       9.62315090       7.41165417  T       0.00000000       0.00000000       0.00000000       0.01083189       0.01321228       0.00286204
Pd       5.45576007       2.73296966       9.40526065  T       0.00000000       0.00000000       0.00000000       0.01587431      -0.02682134      -0.00906486
Pd      -0.03469068       2.71173964       9.40950856  T       0.00000000       0.00000000       0.00000000       0.01284192       0.00479963      -0.00882992
Pd       8.22700496       0.01494365       9.39883225  T       0.00000000       0.00000000       0.00000000      -0.00712322      -0.01587166      -0.00295473
Pd       5.47688747       0.00567851       9.40496152  T       0.00000000       0.00000000       0.00000000       0.00423110       0.00025343      -0.01751991
Pd       2.72704953       0.00305478       9.40726012  T       0.00000000       0.00000000       0.00000000      -0.01071207      -0.00202458      -0.00140147
Pd      -0.02634412      -0.01081667       9.40045299  T       0.00000000       0.00000000       0.00000000       0.00674120       0.01916177       0.00234770
Pd       9.60363731       9.62453745       7.40582443  T       0.00000000       0.00000000       0.00000000       0.02072390       0.00925728      -0.00135471
Pd       6.84791001       9.63524208       7.40763457  T       0.00000000       0.00000000       0.00000000       0.00875033      -0.00305946       0.00833406
Pd       2.70794654       2.75206252       9.41569655  T       0.00000000       0.00000000       0.00000000       0.02365805      -0.00265847      -0.01488333
Pd      -0.02133668       5.50139852       5.44226065  T       0.00000000       0.00000000       0.00000000       0.00039315      -0.00177975      -0.00864367
Pd       8.23838026       2.76452889       5.43397412  T       0.00000000       0.00000000       0.00000000       0.00975540       0.00109492      -0.02140997
Pd       5.48814392       2.76269023       5.43283449  T       0.00000000       0.00000000       0.00000000      -0.00693461      -0.00336851      -0.01124323
Pd       1.37558630       1.37558630       3.44537281  F       0.00000000       0.00000000       0.00000000      -0.03256677       0.00134286       0.21126622
Pd       8.25351783       8.25351783       1.50000000  F       0.00000000       0.00000000       0.00000000       0.00241579      -0.00002206      -0.22705369
Pd       5.50234522       8.25351783       1.50000000  F       0.00000000       0.00000000       0.00000000       0.00303958      -0.00003244      -0.22702994
Pd       2.75117261       8.25351783       1.50000000  F       0.00000000       0.00000000       0.00000000       0.00203854       0.00222644      -0.22841040
Pd       0.00000000       8.25351783       1.50000000  F       0.00000000       0.00000000       0.00000000       0.00155390      -0.00032567      -0.22629127
Pd       8.25351783       5.50234522       1.50000000  F       0.00000000       0.00000000       0.00000000       0.00218060      -0.00028399      -0.21957590
Pd       5.50234522       5.50234522       1.50000000  F       0.00000000       0.00000000       0.00000000       0.00195186      -0.00044938      -0.22334496
Pd       4.12675891       1.37558630       3.44537281  F       0.00000000       0.00000000       0.00000000      -0.01365382       0.00361854       0.21560297
Pd       2.75117261       5.50234522       1.50000000  F       0.00000000       0.00000000       0.00000000       0.00272235       0.00008976      -0.22423750
Pd       8.25351783       2.75117261       1.50000000  F       0.00000000       0.00000000       0.00000000       0.00261295      -0.00107031      -0.22711732
Pd       5.50234522       2.75117261       1.50000000  F       0.00000000       0.00000000       0.00000000       0.00308045      -0.00151468      -0.22774870
Pd       2.75117261       2.75117261       1.50000000  F       0.00000000       0.00000000       0.00000000       0.00167715      -0.00277510      -0.22888514
Pd       0.00000000       2.75117261       1.50000000  F       0.00000000       0.00000000       0.00000000       0.00168536      -0.00059646      -0.22575309
Pd       8.25351783       0.00000000       1.50000000  F       0.00000000       0.00000000       0.00000000       0.00210703      -0.00083554      -0.22845948
Pd       5.50234522       0.00000000       1.50000000  F       0.00000000       0.00000000       0.00000000       0.00150096      -0.00107393      -0.22572076
Pd       2.75117261       0.00000000       1.50000000  F       0.00000000       0.00000000       0.00000000       0.00315462      -0.00070506      -0.22713259
Pd       0.00000000       5.50234522       1.50000000  F       0.00000000       0.00000000       0.00000000       0.00319777      -0.00040035      -0.22069195
Pd       6.87793152       1.37558630       3.44537281  F       0.00000000       0.00000000       0.00000000      -0.02587164       0.02060405       0.23966514
Pd       9.62910413       1.37558630       3.44537281  F       0.00000000       0.00000000       0.00000000      -0.02722885       0.01888514       0.23597393
Pd       1.37558630       4.12675891       3.44537281  F       0.00000000       0.00000000       0.00000000      -0.03015759       0.02133840       0.24954856
Pd       2.73841342       2.75293105       5.42656223  T       0.00000000       0.00000000       0.00000000       0.01203259       0.00142461      -0.00628714
Pd      -0.01337930       2.75646132       5.43353754  T       0.00000000       0.00000000       0.00000000      -0.00756247       0.01325908      -0.01845249
Pd       8.24003208       0.00568029       5.42878822  T       0.00000000       0.00000000       0.00000000       0.00058692      -0.00384043      -0.01115524
Pd       5.48770717       0.00514709       5.43089317  T       0.00000000       0.00000000       0.00000000       0.00816866      -0.00796423      -0.01386423
Pd       2.73919743       0.00072950       5.42995289  T       0.00000000       0.00000000       0.00000000      -0.00238728      -0.00385458       0.00156470
Pd      -0.01178875      -0.00084155       5.42672796  T       0.00000000       0.00000000       0.00000000      -0.00392885      -0.00388065       0.01712221
Pd       9.62910413       9.62910413       3.44537281  F       0.00000000       0.00000000       0.00000000      -0.02594625      -0.00831840       0.23714680
Pd       6.87793152       9.62910413       3.44537281  F       0.00000000       0.00000000       0.00000000      -0.02574711       0.00640132       0.23697560
Pd       4.12675891       9.62910413       3.44537281  F       0.00000000       0.00000000       0.00000000      -0.01939415       0.00743824       0.21846551
Pd       1.37558630       9.62910413       3.44537281  F       0.00000000       0.00000000       0.00000000      -0.02814121      -0.00596365       0.21954639
Pd       9.62910413       6.87793152       3.44537281  F       0.00000000       0.00000000       0.00000000      -0.01429440      -0.00302313       0.23109767
Pd       6.87793152       6.87793152       3.44537281  F       0.00000000       0.00000000       0.00000000      -0.02624597       0.00330917       0.21616690
Pd       4.12675891       6.87793152       3.44537281  F       0.00000000       0.00000000       0.00000000      -0.02479933      -0.01826139       0.24518410
Pd       1.37558630       6.87793152       3.44537281  F       0.00000000       0.00000000       0.00000000      -0.02730671      -0.02185778       0.25561056
Pd       9.62910413       4.12675891       3.44537281  F       0.00000000       0.00000000       0.00000000      -0.01673080       0.00987567       0.23244060
Pd       6.87793152       4.12675891       3.44537281  F       0.00000000       0.00000000       0.00000000      -0.02676805       0.01488913       0.22596344
Pd       4.12675891       4.12675891       3.44537281  F       0.00000000       0.00000000       0.00000000      -0.01876266       0.02719153       0.24576249
Pd       5.45795386       8.28159184       9.41954140  T       0.00000000       0.00000000       0.00000000       0.01199854       0.01924131      -0.01753377
Pd       8.22132502       8.30967201       9.40597915  T       0.00000000       0.00000000       0.00000000       0.01939273       0.02323263      -0.01041860
C        9.75006561       5.49725936      10.97145047  T       0.00000000       0.00000000       0.00000000       0.02042258       0.01352369       0.01412414
O        9.81233850       5.50063461      12.15794738  T       0.00000000       0.00000000       0.00000000       0.00934519      -0.00042073       0.00092770
O        6.61455391       5.49867894      11.07874707  T       0.00000000       0.00000000       0.00000000       0.00417851      -0.01175855      -0.01338773
C        6.45220191       6.56916284      12.00818843  T       0.00000000       0.00000000       0.00000000       0.01087044       0.01164207       0.01249649
H        7.39053626       6.71334210      12.57068634  T       0.00000000       0.00000000       0.00000000       0.01803592      -0.01068026       0.02366697
H        6.19780763       7.53831388      11.49895169  T       0.00000000       0.00000000       0.00000000      -0.00670185      -0.01397093       0.00218320
H        5.63000350       6.31052670      12.70103163  T       0.00000000       0.00000000       0.00000000      -0.00347460       0.01941626      -0.00038896
