87
Lattice="11.004690437655821 0.0 0.0 0.0 11.004690437655821 0.0 0.0 0.0 27.781491233325184" Properties=species:S:1:pos:R:3:move_mask:L:1:momenta:R:3:forces:R:3 idx=4979 E_MACE=-432.0692511993454 d_min=1.9708453050874108 d_reactive=4.268550004505401 rank=8 dE_rel_meV=0.41233496011727766 converged=T energy=-432.0692511993454 stress="0.007813081018347483 9.80646565469625e-06 0.00013723211916700213 9.80646565469625e-06 0.0074508942293460044 -0.0001658744215582892 0.00013723211916700213 -0.0001658744215582892 -0.002149813349844815" pbc="T T T"
Pd       0.00000000       0.00000000       1.50000000  F       0.00000000       0.00000000       0.00000000      -0.00130977       0.00101346      -0.22636916
Pd       4.13001870       6.87251546       7.41078835  T       0.00000000       0.00000000       0.00000000      -0.00235950       0.00117506       0.00605489
Pd       1.38111673       6.86499834       7.40896785  T       0.00000000       0.00000000       0.00000000      -0.00051556       0.00096683       0.00030923
Pd       9.63142911       4.11892804       7.41974530  T       0.00000000       0.00000000       0.00000000      -0.00043141       0.00607826       0.00313124
Pd       6.88063202       4.10419959       7.45348756  T       0.00000000       0.00000000       0.00000000      -0.00218586       0.00038125       0.00070323
Pd       4.14782238       4.11136703       7.44350961  T       0.00000000       0.00000000       0.00000000       0.00437924       0.00033851      -0.00587859
Pd       1.37733465       4.11037463       7.43092716  T       0.00000000       0.00000000       0.00000000      -0.00735306       0.00779514      -0.00044987
Pd       9.63905635       1.36720184       7.41479782  T       0.00000000       0.00000000       0.00000000      -0.00602788       0.00096472       0.00022815
Pd       6.87913336       6.86903067       7.41102714  T       0.00000000       0.00000000       0.00000000      -0.00600820      -0.00506761       0.00183399
Pd       6.89239105       1.37610160       7.43465209  T       0.00000000       0.00000000       0.00000000      -0.00523848       0.00583346       0.00240206
Pd       1.37751587       1.37361375       7.42203470  T       0.00000000       0.00000000       0.00000000      -0.01358786       0.00229925       0.00840449
Pd       8.24993318       8.24978797       5.42745371  T       0.00000000       0.00000000       0.00000000       0.00612661      -0.00468862       0.00114348
Pd       5.50449642       8.25541516       5.43333816  T       0.00000000       0.00000000       0.00000000      -0.00177233      -0.00806558       0.00249711
Pd       2.75457043       8.25120589       5.42972550  T       0.00000000       0.00000000       0.00000000       0.00822080      -0.00270163       0.00096916
Pd       0.00259989       8.24923940       5.42776038  T       0.00000000       0.00000000       0.00000000       0.00232771      -0.00583664      -0.00527904
Pd       8.24987446       5.49455908       5.42929433  T       0.00000000       0.00000000       0.00000000       0.00291961      -0.00079608      -0.00315873
Pd       5.50216376       5.49483580       5.43277254  T       0.00000000       0.00000000       0.00000000       0.00400599      -0.00289898      -0.00065193
Pd       4.14000386       1.37147509       7.43405449  T       0.00000000       0.00000000       0.00000000       0.00258121      -0.00003221      -0.00984553
Pd       2.75855237       5.49691354       5.43005966  T       0.00000000       0.00000000       0.00000000      -0.00223848      -0.00011294      -0.00400705
Pd       9.63296319       6.86572753       7.40279358  T       0.00000000       0.00000000       0.00000000      -0.00156723      -0.00162828      -0.00104629
Pd       4.14585099       9.63187898       7.43110869  T       0.00000000       0.00000000       0.00000000      -0.00445073      -0.00337827       0.01065877
Pd       2.75455900       8.24119268       9.40595969  T       0.00000000       0.00000000       0.00000000      -0.00601817       0.00518009       0.00707411
Pd       0.00540557       8.23577525       9.39896689  T       0.00000000       0.00000000       0.00000000      -0.00448530       0.01364198       0.00250034
Pd       8.25910641       5.52270598       9.40544298  T       0.00000000       0.00000000       0.00000000       0.00058100       0.00851515      -0.00120490
Pd       5.50459355       5.52010921       9.41689329  T       0.00000000       0.00000000       0.00000000       0.01095551      -0.00051889       0.00236160
Pd       2.75612338       5.50149761       9.41161100  T       0.00000000       0.00000000       0.00000000      -0.00373062       0.00473204       0.00978325
Pd       0.00618173       5.50950082       9.40193354  T       0.00000000       0.00000000       0.00000000      -0.00360864       0.00870654       0.00394509
Pd       8.27255237       2.75228691       9.50209197  T       0.00000000       0.00000000       0.00000000      -0.02634123      -0.00220490      -0.01928560
Pd       1.38841618       9.62071140       7.40793831  T       0.00000000       0.00000000       0.00000000      -0.00168930       0.00319136       0.00127614
Pd       5.52276890       2.80271710       9.47866843  T       0.00000000       0.00000000       0.00000000       0.00134998      -0.00920218      -0.00088627
Pd       0.02313753       2.72872849       9.50476819  T       0.00000000       0.00000000       0.00000000       0.01256532       0.01117847       0.00060634
Pd       8.29022156      -0.04119260       9.39424856  T       0.00000000       0.00000000       0.00000000      -0.00363957      -0.00118766       0.01004443
Pd       5.51518972      -0.07540275       9.46234453  T       0.00000000       0.00000000       0.00000000       0.00128945       0.02223178       0.02523265
Pd       2.74270001      -0.01526041       9.40421711  T       0.00000000       0.00000000       0.00000000      -0.00596827      -0.00098798       0.00440994
Pd       0.01263629      -0.04589581       9.39767526  T       0.00000000       0.00000000       0.00000000       0.00230275       0.00543859      -0.00314544
Pd       9.63011957       9.61590825       7.39928558  T       0.00000000       0.00000000       0.00000000       0.00671833       0.01236041       0.00686223
Pd       6.86869513       9.63379188       7.43275879  T       0.00000000       0.00000000       0.00000000      -0.00255362      -0.00077080      -0.00622424
Pd       2.74212637       2.75035777       9.41032978  T       0.00000000       0.00000000       0.00000000      -0.00218917      -0.00324428      -0.00362212
Pd       0.00557879       5.49320942       5.42744357  T       0.00000000       0.00000000       0.00000000      -0.00113947      -0.00046347       0.00293908
Pd       8.25874300       2.75000360       5.43402479  T       0.00000000       0.00000000       0.00000000      -0.01657798      -0.00042269      -0.00257370
Pd       5.51133418       2.74540667       5.43718996  T       0.00000000       0.00000000       0.00000000      -0.00467914       0.00401717       0.00671221
Pd       1.37558630       1.37558630       3.44537281  F       0.00000000       0.00000000       0.00000000       0.02806399       0.00637407       0.23122075
Pd       8.25351783       8.25351783       1.50000000  F       0.00000000       0.00000000       0.00000000       0.00062282       0.00152283      -0.22722450
Pd       5.50234522       8.25351783       1.50000000  F       0.00000000       0.00000000       0.00000000      -0.00091280       0.00121451      -0.22525192
Pd       2.75117261       8.25351783       1.50000000  F       0.00000000       0.00000000       0.00000000      -0.00098188       0.00168628      -0.22547408
Pd       0.00000000       8.25351783       1.50000000  F       0.00000000       0.00000000       0.00000000      -0.00109377       0.00064874      -0.22734202
Pd       8.25351783       5.50234522       1.50000000  F       0.00000000       0.00000000       0.00000000       0.00087020      -0.00020419      -0.22613279
Pd       5.50234522       5.50234522       1.50000000  F       0.00000000       0.00000000       0.00000000       0.00044830       0.00094852      -0.22735813
Pd       4.12675891       1.37558630       3.44537281  F       0.00000000       0.00000000       0.00000000       0.00328213       0.01616393       0.22415895
Pd       2.75117261       5.50234522       1.50000000  F       0.00000000       0.00000000       0.00000000      -0.00257205       0.00049319      -0.22819891
Pd       8.25351783       2.75117261       1.50000000  F       0.00000000       0.00000000       0.00000000      -0.00021185       0.00000450      -0.22064716
Pd       5.50234522       2.75117261       1.50000000  F       0.00000000       0.00000000       0.00000000      -0.00001504       0.00060463      -0.22208093
Pd       2.75117261       2.75117261       1.50000000  F       0.00000000       0.00000000       0.00000000      -0.00190241      -0.00004924      -0.22361265
Pd       0.00000000       2.75117261       1.50000000  F       0.00000000       0.00000000       0.00000000      -0.00071469       0.00038359      -0.22119484
Pd       8.25351783       0.00000000       1.50000000  F       0.00000000       0.00000000       0.00000000      -0.00027357       0.00154512      -0.22553167
Pd       5.50234522       0.00000000       1.50000000  F       0.00000000       0.00000000       0.00000000       0.00021665      -0.00068684      -0.22582910
Pd       2.75117261       0.00000000       1.50000000  F       0.00000000       0.00000000       0.00000000      -0.00181078       0.00056102      -0.22707930
Pd       0.00000000       5.50234522       1.50000000  F       0.00000000       0.00000000       0.00000000      -0.00159156       0.00065488      -0.22546268
Pd       6.87793152       1.37558630       3.44537281  F       0.00000000       0.00000000       0.00000000       0.01155516       0.00577551       0.22267430
Pd       9.62910413       1.37558630       3.44537281  F       0.00000000       0.00000000       0.00000000       0.00200994      -0.00265215       0.22552615
Pd       1.37558630       4.12675891       3.44537281  F       0.00000000       0.00000000       0.00000000       0.02523346      -0.01870540       0.22865721
Pd       2.75938243       2.75075824       5.43864595  T       0.00000000       0.00000000       0.00000000      -0.00064458      -0.00538934      -0.00194009
Pd       0.00484168       2.74785341       5.43032451  T       0.00000000       0.00000000       0.00000000      -0.00907886      -0.00162875       0.00302114
Pd       8.25096430      -0.00280680       5.42953311  T       0.00000000       0.00000000       0.00000000      -0.00146467       0.00471912      -0.00722898
Pd       5.50434351       0.00006651       5.42970502  T       0.00000000       0.00000000       0.00000000       0.00115995       0.00869877      -0.00364438
Pd       2.76282548      -0.00247936       5.43002754  T       0.00000000       0.00000000       0.00000000      -0.00099465      -0.00229667      -0.00510743
Pd       0.00739004      -0.00221984       5.42500304  T       0.00000000       0.00000000       0.00000000      -0.00387566       0.00129019       0.00260341
Pd       9.62910413       9.62910413       3.44537281  F       0.00000000       0.00000000       0.00000000      -0.00241139      -0.00588474       0.22504894
Pd       6.87793152       9.62910413       3.44537281  F       0.00000000       0.00000000       0.00000000       0.00089064      -0.00680678       0.21322605
Pd       4.12675891       9.62910413       3.44537281  F       0.00000000       0.00000000       0.00000000       0.00703375      -0.01818492       0.20504255
Pd       1.37558630       9.62910413       3.44537281  F       0.00000000       0.00000000       0.00000000       0.01526232      -0.00391431       0.22352811
Pd       9.62910413       6.87793152       3.44537281  F       0.00000000       0.00000000       0.00000000       0.00558641      -0.01266344       0.21436326
Pd       6.87793152       6.87793152       3.44537281  F       0.00000000       0.00000000       0.00000000      -0.00829697      -0.01104015       0.23084787
Pd       4.12675891       6.87793152       3.44537281  F       0.00000000       0.00000000       0.00000000       0.01138312       0.00381873       0.22196867
Pd       1.37558630       6.87793152       3.44537281  F       0.00000000       0.00000000       0.00000000       0.00188786      -0.01100430       0.21411618
Pd       9.62910413       4.12675891       3.44537281  F       0.00000000       0.00000000       0.00000000       0.00056577      -0.01104492       0.22244935
Pd       6.87793152       4.12675891       3.44537281  F       0.00000000       0.00000000       0.00000000      -0.00202051      -0.01147669       0.22613558
Pd       4.12675891       4.12675891       3.44537281  F       0.00000000       0.00000000       0.00000000       0.01087876      -0.01969113       0.23516709
Pd       5.50625000       8.22060974       9.41312267  T       0.00000000       0.00000000       0.00000000       0.00222832      -0.00377905      -0.00179512
Pd       8.25696155       8.23976566       9.40294338  T       0.00000000       0.00000000       0.00000000       0.00640007       0.00623499       0.00177337
C        9.64966392       2.62083128      10.90949353  T       0.00000000       0.00000000       0.00000000      -0.01198562      -0.00050495       0.01900641
O        9.63305478       2.52189481      12.09294649  T       0.00000000       0.00000000       0.00000000      -0.00000927       0.00472875      -0.02439576
O        5.57521222       1.35213463      11.00834349  T       0.00000000       0.00000000       0.00000000      -0.02374072       0.00017436      -0.00084543
C        4.52522941       1.34280673      11.98059837  T       0.00000000       0.00000000       0.00000000       0.04027480       0.00272845      -0.01861342
H        4.61596215       2.24792687      12.60890359  T       0.00000000       0.00000000       0.00000000      -0.01677468       0.00151470       0.00667735
H        3.51456138       1.33370770      11.50142681  T       0.00000000       0.00000000       0.00000000      -0.00285478       0.00261770       0.01602489
H        4.63010666       0.43913822      12.60923133  T       0.00000000       0.00000000       0.00000000      -0.00827833       0.00067102       0.00029892
