87
Lattice="11.004690437655821 0.0 0.0 0.0 11.004690437655821 0.0 0.0 0.0 27.781491233325184" Properties=species:S:1:pos:R:3:move_mask:L:1:momenta:R:3:forces:R:3 idx=4930 E_MACE=-431.93720981864453 d_min=1.968825117049308 d_reactive=3.72683108459941 rank=3170 dE_rel_meV=132.4537156609722 converged=T energy=-431.93720981864453 stress="0.008205244507805132 1.0918091354826423e-05 0.00018304107417026964 1.0918091354826423e-05 0.008139663853038938 -0.0002595487570599462 0.00018304107417026964 -0.0002595487570599462 -0.0013511884015888157" pbc="T T T"
Pd       0.00000000       0.00000000       1.50000000  F       0.00000000       0.00000000       0.00000000      -0.00090713       0.00185499      -0.22779664
Pd       4.13064049       6.86742059       7.43105842  T       0.00000000       0.00000000       0.00000000      -0.00635668       0.02180717      -0.00136930
Pd       1.40078489       6.85143661       7.46003431  T       0.00000000       0.00000000       0.00000000      -0.01989688      -0.00587192       0.01738679
Pd       9.63047201       4.10840158       7.44296920  T       0.00000000       0.00000000       0.00000000       0.00082283       0.02359230       0.00149073
Pd       6.88679911       4.12123931       7.44467793  T       0.00000000       0.00000000       0.00000000       0.01138237       0.02317213       0.00077082
Pd       4.14822492       4.12448999       7.44773802  T       0.00000000       0.00000000       0.00000000      -0.01752274      -0.00763081       0.00308356
Pd       1.39344804       4.12921221       7.44594822  T       0.00000000       0.00000000       0.00000000      -0.00230601       0.01796561       0.00263121
Pd       9.62632431       1.37438627       7.43720113  T       0.00000000       0.00000000       0.00000000       0.01061941      -0.01248450      -0.00794476
Pd       6.87331261       6.85016327       7.45228080  T       0.00000000       0.00000000       0.00000000      -0.01445682      -0.01906582      -0.00279052
Pd       6.88957743       1.37325086       7.42569376  T       0.00000000       0.00000000       0.00000000      -0.00579078      -0.02890273       0.00914112
Pd       1.37721702       1.37495214       7.42196454  T       0.00000000       0.00000000       0.00000000       0.00715925      -0.01892790       0.00459302
Pd       8.25285003       8.23975382       5.43958894  T       0.00000000       0.00000000       0.00000000       0.03248508       0.02445134      -0.00965703
Pd       5.50600151       8.24633817       5.43715957  T       0.00000000       0.00000000       0.00000000      -0.01066857      -0.01250680      -0.01033328
Pd       2.74820081       8.24472105       5.43879905  T       0.00000000       0.00000000       0.00000000       0.02123970      -0.00175529      -0.01223800
Pd       0.00447489       8.24058098       5.44017096  T       0.00000000       0.00000000       0.00000000      -0.03007778       0.01967721      -0.00175074
Pd       8.25675236       5.49648893       5.44049200  T       0.00000000       0.00000000       0.00000000       0.01191321      -0.01915402       0.00019555
Pd       5.50363870       5.49487687       5.43563100  T       0.00000000       0.00000000       0.00000000       0.00048398       0.01338296       0.00178637
Pd       4.13825064       1.38623053       7.42827597  T       0.00000000       0.00000000       0.00000000       0.00120606      -0.01870182      -0.00555927
Pd       2.75627837       5.49862875       5.43425674  T       0.00000000       0.00000000       0.00000000      -0.00001579       0.00266790       0.00255422
Pd       9.63825247       6.86574727       7.43023774  T       0.00000000       0.00000000       0.00000000       0.01879472       0.00618083      -0.00976776
Pd       4.12532631       9.62866061       7.41116905  T       0.00000000       0.00000000       0.00000000       0.00258087       0.00344459      -0.00780772
Pd       2.74989914       8.27051408       9.41828310  T       0.00000000       0.00000000       0.00000000       0.01132070       0.00236119       0.00918777
Pd      -0.00284121       8.24895396       9.43270525  T       0.00000000       0.00000000       0.00000000       0.00419139       0.00906556      -0.03511665
Pd       8.30151474       5.50855808       9.43236647  T       0.00000000       0.00000000       0.00000000      -0.03855051       0.00387664      -0.02412083
Pd       5.58519235       5.55482694       9.46706238  T       0.00000000       0.00000000       0.00000000       0.00273324      -0.02044562      -0.01306256
Pd       2.70988150       5.51065278       9.50576011  T       0.00000000       0.00000000       0.00000000      -0.01353232      -0.00616422      -0.03427672
Pd      -0.00232885       5.49961559       9.43893685  T       0.00000000       0.00000000       0.00000000       0.00275462      -0.01720829      -0.02948795
Pd       8.29540048       2.73457295       9.53312760  T       0.00000000       0.00000000       0.00000000      -0.02479544      -0.03008903      -0.02421810
Pd       1.37418957       9.61361544       7.41995237  T       0.00000000       0.00000000       0.00000000      -0.00142723       0.01141677       0.00318558
Pd       5.51381571       2.72127165       9.50263333  T       0.00000000       0.00000000       0.00000000      -0.01041329      -0.00925357      -0.00228144
Pd       0.00802519       2.74652378       9.42748330  T       0.00000000       0.00000000       0.00000000       0.00559471      -0.01484517      -0.00386149
Pd       8.26386862      -0.04086360       9.41305538  T       0.00000000       0.00000000       0.00000000      -0.02058944       0.00957235       0.00507771
Pd       5.50316519      -0.02819503       9.40507016  T       0.00000000       0.00000000       0.00000000       0.01518860       0.00010194      -0.01083089
Pd       2.75605715      -0.01287485       9.41013477  T       0.00000000       0.00000000       0.00000000      -0.01222323       0.02039409      -0.00644381
Pd       0.01179477      -0.00710471       9.41893057  T       0.00000000       0.00000000       0.00000000       0.00051113       0.00313951      -0.00697796
Pd       9.63510851       9.62064816       7.42405944  T       0.00000000       0.00000000       0.00000000      -0.00823447       0.00332526      -0.01989940
Pd       6.88350529       9.61307271       7.41784358  T       0.00000000       0.00000000       0.00000000      -0.00254188       0.02395339      -0.01780222
Pd       2.75297640       2.72169787       9.42250072  T       0.00000000       0.00000000       0.00000000       0.02166699      -0.01662652      -0.02460180
Pd       0.01179376       5.49921775       5.44350944  T       0.00000000       0.00000000       0.00000000      -0.00894938      -0.00086478      -0.01408750
Pd       8.25569013       2.74571064       5.43680882  T       0.00000000       0.00000000       0.00000000       0.01597555       0.01570116      -0.01229724
Pd       5.51297102       2.74928126       5.43539411  T       0.00000000       0.00000000       0.00000000      -0.02917200       0.02626180       0.00390794
Pd       1.37558630       1.37558630       3.44537281  F       0.00000000       0.00000000       0.00000000      -0.00654337       0.01715953       0.25906277
Pd       8.25351783       8.25351783       1.50000000  F       0.00000000       0.00000000       0.00000000      -0.00145131       0.00252543      -0.22754169
Pd       5.50234522       8.25351783       1.50000000  F       0.00000000       0.00000000       0.00000000      -0.00090928       0.00112978      -0.22596383
Pd       2.75117261       8.25351783       1.50000000  F       0.00000000       0.00000000       0.00000000      -0.00013816       0.00112371      -0.22578364
Pd       0.00000000       8.25351783       1.50000000  F       0.00000000       0.00000000       0.00000000       0.00026039       0.00247829      -0.22521264
Pd       8.25351783       5.50234522       1.50000000  F       0.00000000       0.00000000       0.00000000      -0.00176924      -0.00045188      -0.22537930
Pd       5.50234522       5.50234522       1.50000000  F       0.00000000       0.00000000       0.00000000       0.00005833       0.00031020      -0.22433646
Pd       4.12675891       1.37558630       3.44537281  F       0.00000000       0.00000000       0.00000000      -0.00151408       0.01101692       0.24564760
Pd       2.75117261       5.50234522       1.50000000  F       0.00000000       0.00000000       0.00000000       0.00007417       0.00142321      -0.22604324
Pd       8.25351783       2.75117261       1.50000000  F       0.00000000       0.00000000       0.00000000      -0.00232225      -0.00013476      -0.22100342
Pd       5.50234522       2.75117261       1.50000000  F       0.00000000       0.00000000       0.00000000      -0.00185692       0.00075192      -0.22173282
Pd       2.75117261       2.75117261       1.50000000  F       0.00000000       0.00000000       0.00000000       0.00151560       0.00015947      -0.22574644
Pd       0.00000000       2.75117261       1.50000000  F       0.00000000       0.00000000       0.00000000       0.00013021      -0.00033073      -0.22485889
Pd       8.25351783       0.00000000       1.50000000  F       0.00000000       0.00000000       0.00000000      -0.00218567       0.00240086      -0.22620692
Pd       5.50234522       0.00000000       1.50000000  F       0.00000000       0.00000000       0.00000000      -0.00032832       0.00220819      -0.22750295
Pd       2.75117261       0.00000000       1.50000000  F       0.00000000       0.00000000       0.00000000       0.00212167       0.00060460      -0.22979418
Pd       0.00000000       5.50234522       1.50000000  F       0.00000000       0.00000000       0.00000000      -0.00053715       0.00072324      -0.22732636
Pd       6.87793152       1.37558630       3.44537281  F       0.00000000       0.00000000       0.00000000       0.01078408      -0.00827798       0.23822012
Pd       9.62910413       1.37558630       3.44537281  F       0.00000000       0.00000000       0.00000000       0.01609603      -0.00335769       0.24739375
Pd       1.37558630       4.12675891       3.44537281  F       0.00000000       0.00000000       0.00000000      -0.00634328      -0.01438815       0.25803755
Pd       2.75411130       2.75253240       5.43892753  T       0.00000000       0.00000000       0.00000000       0.02015104       0.01433781       0.00722141
Pd      -0.00011775       2.75260134       5.44294047  T       0.00000000       0.00000000       0.00000000      -0.00175461      -0.01572123      -0.02428930
Pd       8.25791267      -0.00662363       5.43292446  T       0.00000000       0.00000000       0.00000000      -0.00314322       0.00366852       0.01122597
Pd       5.50282884       0.00097566       5.43209558  T       0.00000000       0.00000000       0.00000000       0.00571291      -0.01524627       0.00324716
Pd       2.74911895      -0.00115910       5.42985013  T       0.00000000       0.00000000       0.00000000       0.00209848      -0.01303242       0.00695193
Pd       0.00341226      -0.00578579       5.43343599  T       0.00000000       0.00000000       0.00000000      -0.00034334       0.00313235      -0.00165297
Pd       9.62910413       9.62910413       3.44537281  F       0.00000000       0.00000000       0.00000000       0.00436347      -0.02187572       0.25165892
Pd       6.87793152       9.62910413       3.44537281  F       0.00000000       0.00000000       0.00000000       0.00445853      -0.02281503       0.25739511
Pd       4.12675891       9.62910413       3.44537281  F       0.00000000       0.00000000       0.00000000       0.00206392      -0.01634299       0.25880966
Pd       1.37558630       9.62910413       3.44537281  F       0.00000000       0.00000000       0.00000000      -0.00336397      -0.03194542       0.24009286
Pd       9.62910413       6.87793152       3.44537281  F       0.00000000       0.00000000       0.00000000       0.00922863      -0.02071616       0.27467832
Pd       6.87793152       6.87793152       3.44537281  F       0.00000000       0.00000000       0.00000000       0.00855275      -0.01323898       0.25002739
Pd       4.12675891       6.87793152       3.44537281  F       0.00000000       0.00000000       0.00000000       0.00807612       0.00379192       0.24900506
Pd       1.37558630       6.87793152       3.44537281  F       0.00000000       0.00000000       0.00000000      -0.00240887      -0.00313078       0.22979149
Pd       9.62910413       4.12675891       3.44537281  F       0.00000000       0.00000000       0.00000000       0.01639809      -0.00119333       0.27249763
Pd       6.87793152       4.12675891       3.44537281  F       0.00000000       0.00000000       0.00000000       0.01990275      -0.00326193       0.24468499
Pd       4.12675891       4.12675891       3.44537281  F       0.00000000       0.00000000       0.00000000       0.00532683      -0.01935698       0.24155202
Pd       5.49559691       8.27873009       9.41787845  T       0.00000000       0.00000000       0.00000000       0.01628458      -0.00287751      -0.00897885
Pd       8.25544126       8.23907890       9.42993574  T       0.00000000       0.00000000       0.00000000       0.00354298       0.00826983      -0.02973560
C        6.90079978       2.53448166      10.90838201  T       0.00000000       0.00000000       0.00000000      -0.00821423      -0.01219609      -0.01341670
O        6.85687148       2.40029914      12.08866659  T       0.00000000       0.00000000       0.00000000       0.00566448       0.04058579      -0.02187267
O        4.18231217       5.08338303      10.95525293  T       0.00000000       0.00000000       0.00000000      -0.00813456       0.02099601       0.02502285
C        4.24556545       5.60532179      12.29274371  T       0.00000000       0.00000000       0.00000000       0.00376149       0.03199063       0.01897558
H        4.20410125       4.74745058      12.99102162  T       0.00000000       0.00000000       0.00000000      -0.02562224       0.02134607      -0.03278000
H        5.19483389       6.14574022      12.45781585  T       0.00000000       0.00000000       0.00000000       0.01533760       0.02100235      -0.03210490
H        3.39963016       6.28666526      12.49571121  T       0.00000000       0.00000000       0.00000000      -0.02327702      -0.00011251      -0.03054719
