87
Lattice="11.004690437655821 0.0 0.0 0.0 11.004690437655821 0.0 0.0 0.0 27.781491233325184" Properties=species:S:1:pos:R:3:move_mask:L:1:momenta:R:3:forces:R:3 idx=3470 E_MACE=-432.06935099736694 d_min=1.970522800643022 d_reactive=4.2701873883729435 rank=3 dE_rel_meV=0.31253693856569953 converged=T energy=-432.06935099736694 stress="0.007803583487303831 7.742065848317689e-06 0.00014673257319859908 7.742065848317689e-06 0.007442964761522948 -0.00016086481908404073 0.00014673257319859908 -0.00016086481908404073 -0.0021581413593768067" pbc="T T T"
Pd       0.00000000       0.00000000       1.50000000  F       0.00000000       0.00000000       0.00000000      -0.00104504       0.00166657      -0.22553761
Pd       4.12926625       6.85599574       7.45351219  T       0.00000000       0.00000000       0.00000000      -0.00075077       0.00074328       0.00044275
Pd       1.39687124       6.86284193       7.44363649  T       0.00000000       0.00000000       0.00000000       0.00177528       0.00159465      -0.00711504
Pd       9.63107482       4.12484933       7.42176853  T       0.00000000       0.00000000       0.00000000      -0.01467391       0.00221330       0.00916470
Pd       6.88763167       4.11844683       7.41460130  T       0.00000000       0.00000000       0.00000000      -0.00406555       0.00068505       0.00129914
Pd       4.14108468       4.12735142       7.43458201  T       0.00000000       0.00000000       0.00000000      -0.00522324       0.00566429       0.00397153
Pd       1.38901601       4.12280801       7.43432592  T       0.00000000       0.00000000       0.00000000       0.00140238      -0.00102512      -0.01038275
Pd       9.64224604       1.36734536       7.40803749  T       0.00000000       0.00000000       0.00000000      -0.00382416       0.00301354       0.00084273
Pd       6.88032000       6.87047465       7.41950580  T       0.00000000       0.00000000       0.00000000      -0.00148815       0.00579638       0.00418588
Pd       6.87907255       1.36246389       7.39916915  T       0.00000000       0.00000000       0.00000000       0.00823844       0.01275627       0.00887745
Pd       1.39481966       1.37848908       7.43133098  T       0.00000000       0.00000000       0.00000000      -0.00195593      -0.00129042       0.01271444
Pd       8.25899376       8.24456530       5.42753409  T       0.00000000       0.00000000       0.00000000       0.00010024      -0.00074669       0.00192286
Pd       5.49873302       8.24572220       5.42943029  T       0.00000000       0.00000000       0.00000000       0.00271183       0.00106508      -0.00467903
Pd       2.75116312       8.24600803       5.43283393  T       0.00000000       0.00000000       0.00000000       0.00277276      -0.00127112      -0.00124135
Pd       0.00748943       8.24809602       5.43006078  T       0.00000000       0.00000000       0.00000000      -0.00252560       0.00086266      -0.00362910
Pd       8.25808311       5.49900742       5.43017076  T       0.00000000       0.00000000       0.00000000      -0.00731212      -0.00120048       0.00302030
Pd       5.50738803       5.50135342       5.43437224  T       0.00000000       0.00000000       0.00000000      -0.01596831      -0.00104581      -0.00540409
Pd       4.11786182       1.38057143       7.43251584  T       0.00000000       0.00000000       0.00000000      -0.00612248       0.00023876       0.00047976
Pd       2.76028968       5.49664295       5.43764968  T       0.00000000       0.00000000       0.00000000      -0.00607046       0.00424887       0.00298412
Pd       9.63068474       6.86170975       7.43055829  T       0.00000000       0.00000000       0.00000000      -0.00587184       0.00820180       0.00028511
Pd       4.12814018       9.62040798       7.41113807  T       0.00000000       0.00000000       0.00000000      -0.00673714      -0.00408276       0.00232058
Pd       2.75314166       8.27191729       9.41715328  T       0.00000000       0.00000000       0.00000000       0.01215458      -0.00087869       0.00229815
Pd       0.00478058       8.25270266       9.41156377  T       0.00000000       0.00000000       0.00000000      -0.00387685       0.00534597       0.00959533
Pd       8.27695009       5.48002080       9.50440772  T       0.00000000       0.00000000       0.00000000       0.00855646       0.01145503       0.00226359
Pd       5.52077471       5.50433517       9.50031048  T       0.00000000       0.00000000       0.00000000      -0.01210819      -0.00524502      -0.00476698
Pd       2.77179900       5.55466012       9.47830681  T       0.00000000       0.00000000       0.00000000       0.00047679      -0.00881660      -0.00015824
Pd      -0.00907576       5.50180042       9.40977052  T       0.00000000       0.00000000       0.00000000      -0.00169713      -0.00384805      -0.00201333
Pd       8.26617862       2.70567472       9.39748584  T       0.00000000       0.00000000       0.00000000       0.00212964       0.00429934      -0.00323329
Pd       1.37889867       9.62404551       7.41086792  T       0.00000000       0.00000000       0.00000000      -0.00178161       0.00007514       0.00545421
Pd       5.53906083       2.71022464       9.39451529  T       0.00000000       0.00000000       0.00000000      -0.00416499      -0.00041094       0.00851929
Pd      -0.00844342       2.73609558       9.40430160  T       0.00000000       0.00000000       0.00000000      -0.00613946      -0.00039938       0.00483869
Pd       8.25944478      -0.01760842       9.39913339  T       0.00000000       0.00000000       0.00000000      -0.00581692       0.01469089       0.00213864
Pd       5.50620766      -0.01338219       9.40308819  T       0.00000000       0.00000000       0.00000000       0.00625963       0.00677166       0.00126648
Pd       2.75560866      -0.03246358       9.41308228  T       0.00000000       0.00000000       0.00000000       0.00179573      -0.00042438      -0.00199346
Pd       0.00365893      -0.01211086       9.40602467  T       0.00000000       0.00000000       0.00000000      -0.00514193       0.00472305       0.00788100
Pd       9.63477066       9.61650175       7.40909661  T       0.00000000       0.00000000       0.00000000      -0.00054837      -0.00019494      -0.00121563
Pd       6.88189366       9.61713691       7.40294158  T       0.00000000       0.00000000       0.00000000      -0.00150276      -0.00108625      -0.00168144
Pd       2.76372657       2.67735905       9.46371044  T       0.00000000       0.00000000       0.00000000       0.00170273       0.01015961       0.01517005
Pd       0.00832633       5.50191644       5.43901361  T       0.00000000       0.00000000       0.00000000      -0.00096229      -0.00512114      -0.00467373
Pd       8.26084044       2.74893746       5.42489604  T       0.00000000       0.00000000       0.00000000      -0.00330220       0.00119682       0.00332533
Pd       5.49971849       2.74842483       5.42977059  T       0.00000000       0.00000000       0.00000000      -0.00091501       0.00548083      -0.01045535
Pd       1.37558630       1.37558630       3.44537281  F       0.00000000       0.00000000       0.00000000       0.00742797      -0.01742699       0.20569207
Pd       8.25351783       8.25351783       1.50000000  F       0.00000000       0.00000000       0.00000000      -0.00156022       0.00066412      -0.22559213
Pd       5.50234522       8.25351783       1.50000000  F       0.00000000       0.00000000       0.00000000       0.00095835      -0.00021152      -0.22611794
Pd       2.75117261       8.25351783       1.50000000  F       0.00000000       0.00000000       0.00000000       0.00042472       0.00096123      -0.22740758
Pd       0.00000000       8.25351783       1.50000000  F       0.00000000       0.00000000       0.00000000      -0.00266957       0.00052027      -0.22823987
Pd       8.25351783       5.50234522       1.50000000  F       0.00000000       0.00000000       0.00000000      -0.00068749       0.00042388      -0.22122069
Pd       5.50234522       5.50234522       1.50000000  F       0.00000000       0.00000000       0.00000000      -0.00019379       0.00000603      -0.22062455
Pd       4.12675891       1.37558630       3.44537281  F       0.00000000       0.00000000       0.00000000       0.00086041      -0.00632690       0.21395561
Pd       2.75117261       5.50234522       1.50000000  F       0.00000000       0.00000000       0.00000000      -0.00003636       0.00063468      -0.22206736
Pd       8.25351783       2.75117261       1.50000000  F       0.00000000       0.00000000       0.00000000      -0.00126593       0.00095770      -0.22647050
Pd       5.50234522       2.75117261       1.50000000  F       0.00000000       0.00000000       0.00000000      -0.00021754       0.00153769      -0.22547160
Pd       2.75117261       2.75117261       1.50000000  F       0.00000000       0.00000000       0.00000000       0.00017613      -0.00073704      -0.22579500
Pd       0.00000000       2.75117261       1.50000000  F       0.00000000       0.00000000       0.00000000      -0.00187554       0.00051783      -0.22708749
Pd       8.25351783       0.00000000       1.50000000  F       0.00000000       0.00000000       0.00000000      -0.00108925       0.00061002      -0.22742968
Pd       5.50234522       0.00000000       1.50000000  F       0.00000000       0.00000000       0.00000000       0.00068397       0.00148519      -0.22719520
Pd       2.75117261       0.00000000       1.50000000  F       0.00000000       0.00000000       0.00000000      -0.00093898       0.00117216      -0.22529361
Pd       0.00000000       5.50234522       1.50000000  F       0.00000000       0.00000000       0.00000000      -0.00192038      -0.00006412      -0.22359432
Pd       6.87793152       1.37558630       3.44537281  F       0.00000000       0.00000000       0.00000000      -0.00302502      -0.00591416       0.22543399
Pd       9.62910413       1.37558630       3.44537281  F       0.00000000       0.00000000       0.00000000       0.01567969      -0.00353507       0.22334596
Pd       1.37558630       4.12675891       3.44537281  F       0.00000000       0.00000000       0.00000000       0.00337917       0.01646827       0.22574392
Pd       2.75318608       2.75144558       5.43002434  T       0.00000000       0.00000000       0.00000000       0.00027796       0.00811912      -0.00623768
Pd       0.01166653       2.74867348       5.43030669  T       0.00000000       0.00000000       0.00000000      -0.00022737      -0.00150885      -0.00714120
Pd       8.25625572      -0.00428162       5.42764299  T       0.00000000       0.00000000       0.00000000       0.00181062      -0.00524715      -0.00425326
Pd       5.49869397      -0.00353325       5.42773252  T       0.00000000       0.00000000       0.00000000       0.00774121      -0.00664468      -0.00177920
Pd       2.75342211       0.00214958       5.43351063  T       0.00000000       0.00000000       0.00000000      -0.00239458      -0.00928427       0.00139962
Pd       0.00350647      -0.00210246       5.42972059  T       0.00000000       0.00000000       0.00000000       0.00820513      -0.00416907       0.00078973
Pd       9.62910413       9.62910413       3.44537281  F       0.00000000       0.00000000       0.00000000       0.00222227      -0.01120323       0.21428472
Pd       6.87793152       9.62910413       3.44537281  F       0.00000000       0.00000000       0.00000000       0.00492847      -0.01234979       0.21494768
Pd       4.12675891       9.62910413       3.44537281  F       0.00000000       0.00000000       0.00000000      -0.00801944      -0.01062233       0.23178936
Pd       1.37558630       9.62910413       3.44537281  F       0.00000000       0.00000000       0.00000000       0.01188209       0.00404401       0.22279571
Pd       9.62910413       6.87793152       3.44537281  F       0.00000000       0.00000000       0.00000000       0.02545359      -0.01883815       0.22970909
Pd       6.87793152       6.87793152       3.44537281  F       0.00000000       0.00000000       0.00000000       0.00008389      -0.01092702       0.22269427
Pd       4.12675891       6.87793152       3.44537281  F       0.00000000       0.00000000       0.00000000      -0.00206885      -0.01185758       0.22663637
Pd       1.37558630       6.87793152       3.44537281  F       0.00000000       0.00000000       0.00000000       0.01113895      -0.02036822       0.23624105
Pd       9.62910413       4.12675891       3.44537281  F       0.00000000       0.00000000       0.00000000       0.02872982       0.00659307       0.23206274
Pd       6.87793152       4.12675891       3.44537281  F       0.00000000       0.00000000       0.00000000       0.00090290      -0.00257670       0.22592362
Pd       4.12675891       4.12675891       3.44537281  F       0.00000000       0.00000000       0.00000000       0.01143325       0.00613588       0.22381241
Pd       5.50803673       8.27457397       9.40593629  T       0.00000000       0.00000000       0.00000000      -0.00061560       0.00740154      -0.00286118
Pd       8.25953528       8.26082138       9.40163418  T       0.00000000       0.00000000       0.00000000      -0.00261790       0.00833854       0.00517018
C        6.89922378       5.37361447      10.90922373  T       0.00000000       0.00000000       0.00000000      -0.02118069       0.00091907       0.00660859
O        6.88090462       5.27590384      12.09267721  T       0.00000000       0.00000000       0.00000000       0.00049141       0.00425224      -0.02323462
O        2.82325052       4.10431582      11.00833620  T       0.00000000       0.00000000       0.00000000       0.00717213       0.01126047      -0.01236063
C        1.77510205       4.09835516      11.98086588  T       0.00000000       0.00000000       0.00000000       0.01708497      -0.01465226      -0.02814918
H        1.86454082       5.00518401      12.60570190  T       0.00000000       0.00000000       0.00000000      -0.01231309       0.01668271       0.01904108
H        0.76498088       4.08662010      11.50111046  T       0.00000000       0.00000000       0.00000000      -0.01539297       0.00428951       0.01926411
H        1.88011677       3.19651105      12.61152035  T       0.00000000       0.00000000       0.00000000      -0.00732261      -0.00539115       0.01120089
