87
Lattice="11.004690437655821 0.0 0.0 0.0 11.004690437655821 0.0 0.0 0.0 27.781491233325184" Properties=species:S:1:pos:R:3:move_mask:L:1:momenta:R:3:forces:R:3 idx=185 E_MACE=-432.0692541868208 d_min=1.9710488908618828 d_reactive=4.267384822309402 rank=7 dE_rel_meV=0.40934748471954663 converged=T energy=-432.0692541868208 stress="0.007805761433465423 8.91248317909831e-06 0.00014445458263035403 8.91248317909831e-06 0.0074415837450142195 -0.00016118446824053124 0.00014445458263035403 -0.00016118446824053124 -0.0021646914315596594" pbc="T T T"
Pd       0.00000000       0.00000000       1.50000000  F       0.00000000       0.00000000       0.00000000      -0.00028928       0.00155336      -0.22549794
Pd       4.13265973       6.86533147       7.40884813  T       0.00000000       0.00000000       0.00000000      -0.00354140      -0.00285260       0.00069423
Pd       1.37945131       6.86588684       7.40274344  T       0.00000000       0.00000000       0.00000000       0.00108007      -0.00180259      -0.00061982
Pd       9.63176351       4.10479811       7.45318872  T       0.00000000       0.00000000       0.00000000      -0.00118191      -0.00070291       0.00111405
Pd       6.89917615       4.11155028       7.44349856  T       0.00000000       0.00000000       0.00000000       0.00377316       0.00159251      -0.00569128
Pd       4.12868671       4.11020157       7.43049022  T       0.00000000       0.00000000       0.00000000      -0.00745211       0.01070783       0.00180779
Pd       1.37808042       4.11923191       7.41927970  T       0.00000000       0.00000000       0.00000000      -0.00065637       0.00534219       0.00445102
Pd       9.64360103       1.37618345       7.43456966  T       0.00000000       0.00000000       0.00000000      -0.00651261       0.00605322       0.00197060
Pd       6.88125052       6.87274329       7.41068458  T       0.00000000       0.00000000       0.00000000       0.00063194      -0.00049962       0.00670977
Pd       6.89124816       1.37174667       7.43422227  T       0.00000000       0.00000000       0.00000000       0.00410559      -0.00220188      -0.01096355
Pd       1.38548191       1.36714862       7.41432507  T       0.00000000       0.00000000       0.00000000      -0.00307239       0.00128422       0.00149955
Pd       8.25582995       8.25558072       5.43332990  T       0.00000000       0.00000000       0.00000000      -0.00282607      -0.00929028       0.00218092
Pd       5.50582536       8.25134950       5.42997047  T       0.00000000       0.00000000       0.00000000       0.00846058      -0.00412747      -0.00357654
Pd       2.75388537       8.24935017       5.42780005  T       0.00000000       0.00000000       0.00000000       0.00140066      -0.00696911      -0.00614973
Pd      -0.00372029       8.24996229       5.42767463  T       0.00000000       0.00000000       0.00000000       0.00838355      -0.00658952      -0.00279083
Pd       8.25336380       5.49489791       5.43265244  T       0.00000000       0.00000000       0.00000000       0.00419879      -0.00217892      -0.00038725
Pd       5.50992574       5.49706559       5.43001310  T       0.00000000       0.00000000       0.00000000      -0.00316496      -0.00080766      -0.00414037
Pd       4.12913217       1.37377570       7.42158906  T       0.00000000       0.00000000       0.00000000      -0.01731404      -0.00050568       0.01106281
Pd       2.75684027       5.49329592       5.42733321  T       0.00000000       0.00000000       0.00000000      -0.00062056       0.00040272       0.00335944
Pd       9.63067856       6.86918946       7.41097016  T       0.00000000       0.00000000       0.00000000      -0.00920550      -0.00477175       0.00289586
Pd       4.14003260       9.62053592       7.40777984  T       0.00000000       0.00000000       0.00000000      -0.00706580       0.00662151       0.00348080
Pd       2.75702496       8.23563014       9.39905098  T       0.00000000       0.00000000       0.00000000      -0.00545195       0.01467374       0.00119237
Pd       0.00372967       8.24007599       9.40291119  T       0.00000000       0.00000000       0.00000000       0.00644176       0.00659087       0.00223319
Pd       8.25583045       5.52070917       9.41723008  T       0.00000000       0.00000000       0.00000000       0.01115232      -0.00210218       0.00067154
Pd       5.50733623       5.50162166       9.41146449  T       0.00000000       0.00000000       0.00000000      -0.00369349       0.00420065       0.00950329
Pd       2.75753387       5.50936182       9.40162097  T       0.00000000       0.00000000       0.00000000      -0.00337245       0.00862525       0.00343250
Pd       0.00580144       5.52302385       9.40551884  T       0.00000000       0.00000000       0.00000000       0.00028619       0.00798819      -0.00174938
Pd       8.27428962       2.80330183       9.47816563  T       0.00000000       0.00000000       0.00000000       0.00112270      -0.00877753      -0.00050051
Pd       1.37645582       9.61587038       7.39902209  T       0.00000000       0.00000000       0.00000000       0.01168714       0.01294093       0.01006398
Pd       5.49333670       2.75035783       9.41018527  T       0.00000000       0.00000000       0.00000000      -0.00243743      -0.00263752      -0.00254830
Pd       0.01901656       2.75269365       9.50093576  T       0.00000000       0.00000000       0.00000000      -0.02333097      -0.00240113      -0.01469782
Pd       8.26618269      -0.07468167       9.46302125  T       0.00000000       0.00000000       0.00000000       0.00189056       0.01412050       0.01667613
Pd       5.49403303      -0.01510173       9.40413450  T       0.00000000       0.00000000       0.00000000      -0.00675794      -0.00132337       0.00427663
Pd       2.76380874      -0.04586735       9.39752892  T       0.00000000       0.00000000       0.00000000       0.00320537       0.00477607      -0.00537056
Pd       0.03676036      -0.04070322       9.39410541  T       0.00000000       0.00000000       0.00000000      -0.00403989      -0.00241738       0.00989325
Pd       9.62044584       9.63385950       7.43237259  T       0.00000000       0.00000000       0.00000000      -0.01010400       0.00051076      -0.00045050
Pd       6.89673636       9.63183058       7.43070015  T       0.00000000       0.00000000       0.00000000       0.00325840      -0.00024763       0.01559773
Pd       2.77416239       2.72851475       9.50439837  T       0.00000000       0.00000000       0.00000000       0.01214493       0.01163542       0.00143339
Pd      -0.00358317       5.49477693       5.42922729  T       0.00000000       0.00000000       0.00000000       0.00282270      -0.00143044      -0.00420121
Pd       8.26264412       2.74539614       5.43729824  T       0.00000000       0.00000000       0.00000000      -0.00504925       0.00410237       0.00576167
Pd       5.51070467       2.75075292       5.43868865  T       0.00000000       0.00000000       0.00000000       0.00033730      -0.00480635      -0.00388644
Pd       1.37558630       1.37558630       3.44537281  F       0.00000000       0.00000000       0.00000000       0.00179472      -0.00285902       0.22578054
Pd       8.25351783       8.25351783       1.50000000  F       0.00000000       0.00000000       0.00000000      -0.00092829       0.00115739      -0.22524189
Pd       5.50234522       8.25351783       1.50000000  F       0.00000000       0.00000000       0.00000000      -0.00101428       0.00167231      -0.22540415
Pd       2.75117261       8.25351783       1.50000000  F       0.00000000       0.00000000       0.00000000      -0.00112529       0.00060387      -0.22733303
Pd       0.00000000       8.25351783       1.50000000  F       0.00000000       0.00000000       0.00000000       0.00063408       0.00152144      -0.22714623
Pd       8.25351783       5.50234522       1.50000000  F       0.00000000       0.00000000       0.00000000       0.00043795       0.00090685      -0.22744521
Pd       5.50234522       5.50234522       1.50000000  F       0.00000000       0.00000000       0.00000000      -0.00263808       0.00045448      -0.22822081
Pd       4.12675891       1.37558630       3.44537281  F       0.00000000       0.00000000       0.00000000       0.02867471       0.00609458       0.23121305
Pd       2.75117261       5.50234522       1.50000000  F       0.00000000       0.00000000       0.00000000      -0.00160971       0.00058275      -0.22557212
Pd       8.25351783       2.75117261       1.50000000  F       0.00000000       0.00000000       0.00000000      -0.00003698       0.00063813      -0.22212328
Pd       5.50234522       2.75117261       1.50000000  F       0.00000000       0.00000000       0.00000000      -0.00191667      -0.00003544      -0.22357183
Pd       2.75117261       2.75117261       1.50000000  F       0.00000000       0.00000000       0.00000000      -0.00072816       0.00040788      -0.22126532
Pd       0.00000000       2.75117261       1.50000000  F       0.00000000       0.00000000       0.00000000      -0.00022748       0.00000228      -0.22061334
Pd       8.25351783       0.00000000       1.50000000  F       0.00000000       0.00000000       0.00000000       0.00020524      -0.00067256      -0.22585466
Pd       5.50234522       0.00000000       1.50000000  F       0.00000000       0.00000000       0.00000000      -0.00184938       0.00057798      -0.22704803
Pd       2.75117261       0.00000000       1.50000000  F       0.00000000       0.00000000       0.00000000      -0.00133203       0.00106678      -0.22641993
Pd       0.00000000       5.50234522       1.50000000  F       0.00000000       0.00000000       0.00000000       0.00087390      -0.00023579      -0.22613909
Pd       6.87793152       1.37558630       3.44537281  F       0.00000000       0.00000000       0.00000000       0.00341024       0.01621230       0.22450155
Pd       9.62910413       1.37558630       3.44537281  F       0.00000000       0.00000000       0.00000000       0.01199539       0.00588529       0.22308896
Pd       1.37558630       4.12675891       3.44537281  F       0.00000000       0.00000000       0.00000000       0.00048985      -0.01092855       0.22231803
Pd       2.75623402       2.74791601       5.43015121  T       0.00000000       0.00000000       0.00000000      -0.01012035      -0.00253169       0.00279752
Pd       0.00540169       2.75002055       5.43406945  T       0.00000000       0.00000000       0.00000000      -0.01757790      -0.00002156      -0.00375562
Pd       8.25562165       0.00004599       5.42964218  T       0.00000000       0.00000000       0.00000000       0.00033303       0.00974135      -0.00283931
Pd       5.51409668      -0.00251836       5.43017056  T       0.00000000       0.00000000       0.00000000      -0.00075668      -0.00106379      -0.00756578
Pd       2.75861805      -0.00235913       5.42485169  T       0.00000000       0.00000000       0.00000000      -0.00350748       0.00234202       0.00350733
Pd      -0.00252985      -0.00296076       5.42967679  T       0.00000000       0.00000000       0.00000000      -0.00143002       0.00705099      -0.01040711
Pd       9.62910413       9.62910413       3.44537281  F       0.00000000       0.00000000       0.00000000       0.00128470      -0.00668518       0.21264930
Pd       6.87793152       9.62910413       3.44537281  F       0.00000000       0.00000000       0.00000000       0.00677888      -0.01818477       0.20513687
Pd       4.12675891       9.62910413       3.44537281  F       0.00000000       0.00000000       0.00000000       0.01583609      -0.00410797       0.22336797
Pd       1.37558630       9.62910413       3.44537281  F       0.00000000       0.00000000       0.00000000      -0.00268145      -0.00625171       0.22498933
Pd       9.62910413       6.87793152       3.44537281  F       0.00000000       0.00000000       0.00000000      -0.00805555      -0.01062111       0.23073985
Pd       6.87793152       6.87793152       3.44537281  F       0.00000000       0.00000000       0.00000000       0.01139459       0.00452105       0.22213577
Pd       4.12675891       6.87793152       3.44537281  F       0.00000000       0.00000000       0.00000000       0.00228851      -0.01046092       0.21443966
Pd       1.37558630       6.87793152       3.44537281  F       0.00000000       0.00000000       0.00000000       0.00549547      -0.01187730       0.21477147
Pd       9.62910413       4.12675891       3.44537281  F       0.00000000       0.00000000       0.00000000      -0.00173000      -0.01172773       0.22641884
Pd       6.87793152       4.12675891       3.44537281  F       0.00000000       0.00000000       0.00000000       0.01105891      -0.02004305       0.23519602
Pd       4.12675891       4.12675891       3.44537281  F       0.00000000       0.00000000       0.00000000       0.02587169      -0.01844970       0.22843090
Pd       5.50613496       8.24135376       9.40571764  T       0.00000000       0.00000000       0.00000000      -0.00603107       0.00518270       0.00894465
Pd       8.25773880       8.22066934       9.41314663  T       0.00000000       0.00000000       0.00000000       0.00231228       0.00013590      -0.00388911
C        1.39581700       2.62138039      10.90928981  T       0.00000000       0.00000000       0.00000000      -0.01254576       0.00130952       0.00023531
O        1.37877818       2.52300124      12.09256616  T       0.00000000       0.00000000       0.00000000      -0.00021811       0.00329431      -0.00957596
O        8.32730263       1.35257556      11.00782969  T       0.00000000       0.00000000       0.00000000      -0.00894115       0.00747771      -0.00719371
C        7.27884417       1.34511549      11.98069566  T       0.00000000       0.00000000       0.00000000       0.02351726       0.00498311      -0.01770435
H        7.37148085       2.24952274      12.60969458  T       0.00000000       0.00000000       0.00000000      -0.01540006       0.00407591       0.00585084
H        6.26780985       1.33798289      11.50210566  T       0.00000000       0.00000000       0.00000000      -0.00323313       0.00360166       0.01896374
H        7.38234671       0.44120087      12.60855547  T       0.00000000       0.00000000       0.00000000      -0.00829583      -0.00902146       0.00811190
