87
Lattice="11.004690437655821 0.0 0.0 0.0 11.004690437655821 0.0 0.0 0.0 27.781491233325184" Properties=species:S:1:pos:R:3:move_mask:L:1:momenta:R:3:forces:R:3 idx=3944 E_MACE=-431.9373463877599 d_min=1.9474290371339074 d_reactive=3.137031586800352 rank=3169 dE_rel_meV=132.3171465456312 converged=T energy=-431.9373463877599 stress="0.00763901682248616 -9.430103472198855e-06 -0.0005372652692036266 -9.430103472198855e-06 0.007735837404816625 2.883090032084995e-05 -0.0005372652692036266 2.883090032084995e-05 -0.0020077382727089685" pbc="T T T"
Pd       0.00000000       0.00000000       1.50000000  F       0.00000000       0.00000000       0.00000000       0.00312611      -0.00068093      -0.22712503
Pd       4.11380422       6.87808254       7.45317016  T       0.00000000       0.00000000       0.00000000       0.00525451      -0.03023251       0.00365211
Pd       1.35529799       6.87460958       7.43144714  T       0.00000000       0.00000000       0.00000000      -0.00227074      -0.00675994      -0.00238076
Pd       9.59405023       4.12850856       7.42748694  T       0.00000000       0.00000000       0.00000000      -0.00598697      -0.00190463       0.00635753
Pd       6.83659897       4.14259134       7.45041627  T       0.00000000       0.00000000       0.00000000       0.01153069       0.00630468       0.01771739
Pd       4.11589012       4.15198373       7.44834263  T       0.00000000       0.00000000       0.00000000       0.00527417       0.00661750       0.00292415
Pd       1.35475364       4.14000039       7.43270458  T       0.00000000       0.00000000       0.00000000       0.00107356       0.00632116      -0.00526530
Pd       9.60511927       1.37588978       7.40966160  T       0.00000000       0.00000000       0.00000000       0.01317372      -0.01280827       0.01355313
Pd       6.83698117       6.86702626       7.45116791  T       0.00000000       0.00000000       0.00000000       0.00346806      -0.01422090       0.00606567
Pd       6.85240279       1.38512754       7.40490845  T       0.00000000       0.00000000       0.00000000       0.02118694      -0.00763836       0.00703338
Pd       1.34576724       1.38374860       7.41185148  T       0.00000000       0.00000000       0.00000000       0.01375803      -0.02045405       0.00543919
Pd       8.24019652       8.24641121       5.43385915  T       0.00000000       0.00000000       0.00000000      -0.00454557      -0.01057643      -0.01515585
Pd       5.48718934       8.25090220       5.43191464  T       0.00000000       0.00000000       0.00000000       0.00252956      -0.01007935       0.00352758
Pd       2.73691848       8.25152629       5.42981761  T       0.00000000       0.00000000       0.00000000       0.00107392       0.00090604       0.00394564
Pd      -0.01249673       8.25198659       5.42938566  T       0.00000000       0.00000000       0.00000000       0.01066541       0.00153502      -0.02128875
Pd       8.23255343       5.50139870       5.44228547  T       0.00000000       0.00000000       0.00000000      -0.00001811      -0.00183486      -0.00894563
Pd       5.49033142       5.50867200       5.43590357  T       0.00000000       0.00000000       0.00000000      -0.00011079      -0.01016183       0.01218411
Pd       4.09700006       1.39205238       7.40796231  T       0.00000000       0.00000000       0.00000000       0.01037015      -0.01643996       0.00885799
Pd       2.74905944       5.50752559       5.44152534  T       0.00000000       0.00000000       0.00000000      -0.00623223      -0.00432634       0.00445162
Pd       9.59444308       6.86806391       7.42793484  T       0.00000000       0.00000000       0.00000000      -0.00624326       0.01424923       0.00530264
Pd       4.09675176       9.63526618       7.40766220  T       0.00000000       0.00000000       0.00000000       0.00869182      -0.00358339       0.00796265
Pd       2.70707690       8.28177818       9.41953301  T       0.00000000       0.00000000       0.00000000       0.01187374       0.01791745      -0.01761407
Pd      -0.04174252       8.25716381       9.41557118  T       0.00000000       0.00000000       0.00000000       0.02341171       0.00209874      -0.00868023
Pd       8.25603342       5.48898155       9.48290207  T       0.00000000       0.00000000       0.00000000       0.02088449       0.01013189      -0.03107540
Pd       5.50687235       5.51838424       9.66165044  T       0.00000000       0.00000000       0.00000000      -0.03133916       0.00162725      -0.02377278
Pd       2.62740054       5.49930671       9.43247716  T       0.00000000       0.00000000       0.00000000       0.04164713      -0.00344123       0.02369870
Pd      -0.06232182       5.50539143       9.42072016  T       0.00000000       0.00000000       0.00000000      -0.01207756      -0.00673873      -0.01694149
Pd       8.21897926       2.71159660       9.40940489  T       0.00000000       0.00000000       0.00000000       0.01285646       0.00543383      -0.00876994
Pd       1.34676219       9.62780953       7.41394942  T       0.00000000       0.00000000       0.00000000       0.02506195       0.01303286       0.01084040
Pd       5.46667214       2.72057785       9.40747764  T       0.00000000       0.00000000       0.00000000       0.01665752      -0.01743260       0.01083022
Pd      -0.04302899       2.75206177       9.41561502  T       0.00000000       0.00000000       0.00000000       0.02371353      -0.00259953      -0.01474676
Pd       8.22692626      -0.01083596       9.40047184  T       0.00000000       0.00000000       0.00000000       0.00687638       0.01894006       0.00226400
Pd       5.47564304       0.01479379       9.39880775  T       0.00000000       0.00000000       0.00000000      -0.00715933      -0.01568934      -0.00276791
Pd       2.72542348       0.00570582       9.40500717  T       0.00000000       0.00000000       0.00000000       0.00463575       0.00037572      -0.01738345
Pd      -0.02445496       0.00308073       9.40734114  T       0.00000000       0.00000000       0.00000000      -0.01015913      -0.00204920      -0.00166870
Pd       9.60627610       9.62315865       7.41162604  T       0.00000000       0.00000000       0.00000000       0.01102336       0.01329386       0.00285927
Pd       6.85243302       9.62448976       7.40576508  T       0.00000000       0.00000000       0.00000000       0.02077799       0.00914234      -0.00125357
Pd       2.70481548       2.73286282       9.40521256  T       0.00000000       0.00000000       0.00000000       0.01566880      -0.02614244      -0.00910045
Pd      -0.01048138       5.50212975       5.43907566  T       0.00000000       0.00000000       0.00000000      -0.01393618      -0.00194586      -0.01709275
Pd       8.24024934       2.75640611       5.43344503  T       0.00000000       0.00000000       0.00000000      -0.00749098       0.01340543      -0.01788731
Pd       5.48731237       2.76453656       5.43384193  T       0.00000000       0.00000000       0.00000000       0.00957319       0.00044066      -0.02077873
Pd       1.37558630       1.37558630       3.44537281  F       0.00000000       0.00000000       0.00000000      -0.01373902       0.00347376       0.21531333
Pd       8.25351783       8.25351783       1.50000000  F       0.00000000       0.00000000       0.00000000       0.00153077      -0.00032730      -0.22627222
Pd       5.50234522       8.25351783       1.50000000  F       0.00000000       0.00000000       0.00000000       0.00238040      -0.00001845      -0.22704329
Pd       2.75117261       8.25351783       1.50000000  F       0.00000000       0.00000000       0.00000000       0.00301382      -0.00003697      -0.22702186
Pd       0.00000000       8.25351783       1.50000000  F       0.00000000       0.00000000       0.00000000       0.00202013       0.00221706      -0.22840129
Pd       8.25351783       5.50234522       1.50000000  F       0.00000000       0.00000000       0.00000000       0.00314812      -0.00041636      -0.22068541
Pd       5.50234522       5.50234522       1.50000000  F       0.00000000       0.00000000       0.00000000       0.00215560      -0.00029680      -0.21956930
Pd       4.12675891       1.37558630       3.44537281  F       0.00000000       0.00000000       0.00000000      -0.02590693       0.02046781       0.23933053
Pd       2.75117261       5.50234522       1.50000000  F       0.00000000       0.00000000       0.00000000       0.00193946      -0.00045366      -0.22332717
Pd       8.25351783       2.75117261       1.50000000  F       0.00000000       0.00000000       0.00000000       0.00165939      -0.00058721      -0.22575201
Pd       5.50234522       2.75117261       1.50000000  F       0.00000000       0.00000000       0.00000000       0.00258059      -0.00106917      -0.22712815
Pd       2.75117261       2.75117261       1.50000000  F       0.00000000       0.00000000       0.00000000       0.00305888      -0.00150506      -0.22775260
Pd       0.00000000       2.75117261       1.50000000  F       0.00000000       0.00000000       0.00000000       0.00165710      -0.00276778      -0.22889835
Pd       8.25351783       0.00000000       1.50000000  F       0.00000000       0.00000000       0.00000000       0.00359004      -0.00036003      -0.22669932
Pd       5.50234522       0.00000000       1.50000000  F       0.00000000       0.00000000       0.00000000       0.00210726      -0.00082167      -0.22844739
Pd       2.75117261       0.00000000       1.50000000  F       0.00000000       0.00000000       0.00000000       0.00147705      -0.00106320      -0.22571557
Pd       0.00000000       5.50234522       1.50000000  F       0.00000000       0.00000000       0.00000000       0.00268840       0.00006417      -0.22422560
Pd       6.87793152       1.37558630       3.44537281  F       0.00000000       0.00000000       0.00000000      -0.02725575       0.01868485       0.23572550
Pd       9.62910413       1.37558630       3.44537281  F       0.00000000       0.00000000       0.00000000      -0.03255898       0.00122026       0.21114344
Pd       1.37558630       4.12675891       3.44537281  F       0.00000000       0.00000000       0.00000000      -0.01841623       0.02726772       0.24525970
Pd       2.73706201       2.76271549       5.43269366  T       0.00000000       0.00000000       0.00000000      -0.00685114      -0.00386102      -0.01055609
Pd      -0.01259925       2.75290634       5.42652158  T       0.00000000       0.00000000       0.00000000       0.01148918       0.00136609      -0.00618712
Pd       8.24159375      -0.00086607       5.42673511  T       0.00000000       0.00000000       0.00000000      -0.00345535      -0.00377357       0.01697400
Pd       5.48872279       0.00563768       5.42874418  T       0.00000000       0.00000000       0.00000000       0.00100848      -0.00384637      -0.01098732
Pd       2.73644494       0.00512307       5.43084733  T       0.00000000       0.00000000       0.00000000       0.00821042      -0.00786316      -0.01364421
Pd      -0.01207273       0.00072102       5.42993530  T       0.00000000       0.00000000       0.00000000      -0.00214994      -0.00378221       0.00181227
Pd       9.62910413       9.62910413       3.44537281  F       0.00000000       0.00000000       0.00000000      -0.02813585      -0.00600259       0.21955379
Pd       6.87793152       9.62910413       3.44537281  F       0.00000000       0.00000000       0.00000000      -0.02605706      -0.00840653       0.23706738
Pd       4.12675891       9.62910413       3.44537281  F       0.00000000       0.00000000       0.00000000      -0.02577516       0.00624228       0.23680355
Pd       1.37558630       9.62910413       3.44537281  F       0.00000000       0.00000000       0.00000000      -0.01930692       0.00737604       0.21834929
Pd       9.62910413       6.87793152       3.44537281  F       0.00000000       0.00000000       0.00000000      -0.02680856      -0.02179361       0.25581317
Pd       6.87793152       6.87793152       3.44537281  F       0.00000000       0.00000000       0.00000000      -0.01368363      -0.00309537       0.23097564
Pd       4.12675891       6.87793152       3.44537281  F       0.00000000       0.00000000       0.00000000      -0.02579912       0.00341270       0.21575786
Pd       1.37558630       6.87793152       3.44537281  F       0.00000000       0.00000000       0.00000000      -0.02430700      -0.01803010       0.24491984
Pd       9.62910413       4.12675891       3.44537281  F       0.00000000       0.00000000       0.00000000      -0.02967184       0.02143074       0.24955550
Pd       6.87793152       4.12675891       3.44537281  F       0.00000000       0.00000000       0.00000000      -0.01604440       0.01002954       0.23216567
Pd       4.12675891       4.12675891       3.44537281  F       0.00000000       0.00000000       0.00000000      -0.02628552       0.01494210       0.22533148
Pd       5.47033402       8.30958314       9.40593572  T       0.00000000       0.00000000       0.00000000       0.01951054       0.02268543      -0.01050823
Pd       8.22054663       8.27215874       9.40849416  T       0.00000000       0.00000000       0.00000000       0.01683449       0.00729294      -0.00363631
C        6.99986213       5.49736953      10.97100261  T       0.00000000       0.00000000       0.00000000       0.02033019       0.01296290       0.01665777
O        7.06217312       5.50066794      12.15752049  T       0.00000000       0.00000000       0.00000000       0.00926988      -0.00018486      -0.00051939
O        3.86467810       5.49804081      11.07864930  T       0.00000000       0.00000000       0.00000000       0.00464973      -0.01205353      -0.01467011
C        3.70274031       6.56847316      12.00817900  T       0.00000000       0.00000000       0.00000000       0.01412906       0.01091889       0.01616449
H        4.64108379       6.71223114      12.57093544  T       0.00000000       0.00000000       0.00000000       0.01686009      -0.01121400       0.02154456
H        3.44882503       7.53770392      11.49910422  T       0.00000000       0.00000000       0.00000000      -0.00784354      -0.01257892       0.00170901
H        2.88065990       6.30981133      12.70107964  T       0.00000000       0.00000000       0.00000000      -0.00551575       0.02012117      -0.00005194
