87
Lattice="11.004690437655821 0.0 0.0 0.0 11.004690437655821 0.0 0.0 0.0 27.781491233325184" Properties=species:S:1:pos:R:3:move_mask:L:1:momenta:R:3:forces:R:3 idx=977 E_MACE=-432.0696635343055 d_min=1.9697908276318539 d_reactive=4.271990429944345 rank=0 dE_rel_meV=0.0 converged=T energy=-432.0696635343055 stress="0.007495171867664734 -5.79648632758041e-06 -3.061287669264112e-05 -5.79648632758041e-06 0.007840805159922382 9.028963753769072e-05 -3.061287669264112e-05 9.028963753769072e-05 -0.002107409638217945" pbc="T T T"
Pd       0.00000000       0.00000000       1.50000000  F       0.00000000       0.00000000       0.00000000       0.00004568       0.00022431      -0.22086517
Pd       4.12751263       6.88592459       7.41356540  T       0.00000000       0.00000000       0.00000000       0.00094689      -0.00581910       0.00258260
Pd       1.36542930       6.87149663       7.44375132  T       0.00000000       0.00000000       0.00000000      -0.00648365      -0.00029283       0.00065441
Pd       9.63770049       4.12587426       7.43322199  T       0.00000000       0.00000000       0.00000000       0.00128780       0.00998876       0.00721359
Pd       6.89340098       4.14350796       7.43096198  T       0.00000000       0.00000000       0.00000000      -0.00412191      -0.00453945       0.00920707
Pd       4.12389283       4.13565339       7.40928141  T       0.00000000       0.00000000       0.00000000       0.01015898      -0.00554324       0.00137009
Pd       1.36199697       4.14079801       7.45235590  T       0.00000000       0.00000000       0.00000000      -0.01029188      -0.00480487      -0.00126488
Pd       9.62673604       1.37759694       7.41489928  T       0.00000000       0.00000000       0.00000000       0.00279076       0.00711943      -0.00421094
Pd       6.88926012       6.86605518       7.43600933  T       0.00000000       0.00000000       0.00000000      -0.01286805       0.00278573       0.00347423
Pd       6.87376443       1.37841365       7.39469668  T       0.00000000       0.00000000       0.00000000      -0.00652943       0.01134699       0.02548691
Pd       1.37436876       1.38573988       7.41934632  T       0.00000000       0.00000000       0.00000000      -0.00129465       0.00404756       0.00076344
Pd       8.25174937       8.24602190       5.43054648  T       0.00000000       0.00000000       0.00000000       0.00216343       0.00507439      -0.00140197
Pd       5.50143934       8.25369194       5.43175869  T       0.00000000       0.00000000       0.00000000       0.00147749      -0.01305028      -0.00539527
Pd       2.74728263       8.25308365       5.43070510  T       0.00000000       0.00000000       0.00000000      -0.00019840      -0.00336652      -0.00309817
Pd      -0.00069874       8.25344936       5.43799807  T       0.00000000       0.00000000       0.00000000       0.00495676       0.00475392       0.01207047
Pd       8.25882793       5.50540092       5.43031985  T       0.00000000       0.00000000       0.00000000      -0.00330912       0.00146305      -0.01096848
Pd       5.50821470       5.50530940       5.43649212  T       0.00000000       0.00000000       0.00000000      -0.00496378      -0.00221230      -0.01096737
Pd       4.11956683       1.37963557       7.39967354  T       0.00000000       0.00000000       0.00000000       0.00760249       0.00147125       0.01018771
Pd       2.74745998       5.50998960       5.43276364  T       0.00000000       0.00000000       0.00000000       0.00202243      -0.00590525      -0.00308199
Pd       9.62906648       6.87943148       7.43417356  T       0.00000000       0.00000000       0.00000000       0.00803962      -0.00977523       0.00114582
Pd       4.11687595       9.63228433       7.41168618  T       0.00000000       0.00000000       0.00000000       0.00401492      -0.00327719       0.00017845
Pd       2.75796452       8.26301045       9.41471509  T       0.00000000       0.00000000       0.00000000      -0.00470058       0.00407592       0.00540362
Pd       0.00475095       8.28099594       9.41271816  T       0.00000000       0.00000000       0.00000000      -0.00156167       0.00981433      -0.00700317
Pd       8.19232900       5.50245143       9.47177103  T       0.00000000       0.00000000       0.00000000      -0.00758054      -0.00106537       0.00100541
Pd       5.47942196       5.50189910       9.40807999  T       0.00000000       0.00000000       0.00000000      -0.00428990       0.00571560       0.01626679
Pd       2.77547435       5.51514251       9.41691332  T       0.00000000       0.00000000       0.00000000       0.00100823      -0.01460797       0.00488611
Pd       0.05620493       5.50726149       9.48221586  T       0.00000000       0.00000000       0.00000000       0.01081301      -0.00023969      -0.01179179
Pd       8.22466393       2.72597206       9.39479944  T       0.00000000       0.00000000       0.00000000      -0.00619629       0.00464369      -0.00064463
Pd       1.36333220       9.64095804       7.43221285  T       0.00000000       0.00000000       0.00000000      -0.00137175      -0.00189510       0.00295691
Pd       5.50398170       2.75275367       9.39795567  T       0.00000000       0.00000000       0.00000000      -0.00879381      -0.00293013      -0.00060727
Pd       0.01344051       2.75966344       9.49035425  T       0.00000000       0.00000000       0.00000000       0.00013016       0.01615326      -0.01159340
Pd       8.21175138       0.00042686       9.39851111  T       0.00000000       0.00000000       0.00000000       0.00572124      -0.00841914       0.00174912
Pd       5.48908493       0.00399476       9.39671002  T       0.00000000       0.00000000       0.00000000       0.01522340      -0.00350770       0.00685666
Pd       2.76326411       0.01042719       9.40546420  T       0.00000000       0.00000000       0.00000000       0.01011877      -0.00779159      -0.00610790
Pd      -0.01654123      -0.00063397       9.50857187  T       0.00000000       0.00000000       0.00000000       0.01131977      -0.02713088      -0.01746027
Pd       9.62990997       9.64172541       7.42797680  T       0.00000000       0.00000000       0.00000000       0.00938816      -0.00820091      -0.00828681
Pd       6.87357004       9.62126857       7.40955937  T       0.00000000       0.00000000       0.00000000      -0.00094764      -0.00224226       0.00846987
Pd       2.78665410       2.76112191       9.40291260  T       0.00000000       0.00000000       0.00000000      -0.00279330      -0.00567192       0.00235945
Pd      -0.00066831       5.50253583       5.43695745  T       0.00000000       0.00000000       0.00000000      -0.00541343      -0.00011411       0.00657642
Pd       8.25519188       2.75819062       5.42756621  T       0.00000000       0.00000000       0.00000000       0.00194340       0.00006007      -0.00123743
Pd       5.50186643       2.75771192       5.42722512  T       0.00000000       0.00000000       0.00000000      -0.00171096       0.00086571       0.00095257
Pd       1.37558630       1.37558630       3.44537281  F       0.00000000       0.00000000       0.00000000      -0.01046109       0.01022271       0.22253663
Pd       8.25351783       8.25351783       1.50000000  F       0.00000000       0.00000000       0.00000000       0.00020081       0.00095238      -0.22738599
Pd       5.50234522       8.25351783       1.50000000  F       0.00000000       0.00000000       0.00000000       0.00113927       0.00007082      -0.22542935
Pd       2.75117261       8.25351783       1.50000000  F       0.00000000       0.00000000       0.00000000       0.00006633       0.00154519      -0.22820165
Pd       0.00000000       8.25351783       1.50000000  F       0.00000000       0.00000000       0.00000000      -0.00029810       0.00070264      -0.22371425
Pd       8.25351783       5.50234522       1.50000000  F       0.00000000       0.00000000       0.00000000      -0.00084367      -0.00140980      -0.22549021
Pd       5.50234522       5.50234522       1.50000000  F       0.00000000       0.00000000       0.00000000       0.00099854      -0.00030866      -0.22481185
Pd       4.12675891       1.37558630       3.44537281  F       0.00000000       0.00000000       0.00000000      -0.00898556       0.00204640       0.21454996
Pd       2.75117261       5.50234522       1.50000000  F       0.00000000       0.00000000       0.00000000       0.00025466      -0.00202840      -0.22717923
Pd       8.25351783       2.75117261       1.50000000  F       0.00000000       0.00000000       0.00000000       0.00124912      -0.00103982      -0.22606266
Pd       5.50234522       2.75117261       1.50000000  F       0.00000000       0.00000000       0.00000000       0.00085403      -0.00142864      -0.22741973
Pd       2.75117261       2.75117261       1.50000000  F       0.00000000       0.00000000       0.00000000      -0.00081986      -0.00204358      -0.22647015
Pd       0.00000000       2.75117261       1.50000000  F       0.00000000       0.00000000       0.00000000      -0.00041767      -0.00077657      -0.22110168
Pd       8.25351783       0.00000000       1.50000000  F       0.00000000       0.00000000       0.00000000       0.00076356       0.00042804      -0.22643657
Pd       5.50234522       0.00000000       1.50000000  F       0.00000000       0.00000000       0.00000000       0.00028410       0.00055896      -0.22704193
Pd       2.75117261       0.00000000       1.50000000  F       0.00000000       0.00000000       0.00000000       0.00024002       0.00079623      -0.22550642
Pd       0.00000000       5.50234522       1.50000000  F       0.00000000       0.00000000       0.00000000      -0.00003408      -0.00164561      -0.22200793
Pd       6.87793152       1.37558630       3.44537281  F       0.00000000       0.00000000       0.00000000      -0.00229586       0.00572678       0.22731518
Pd       9.62910413       1.37558630       3.44537281  F       0.00000000       0.00000000       0.00000000       0.00317104       0.00590375       0.22660003
Pd       1.37558630       4.12675891       3.44537281  F       0.00000000       0.00000000       0.00000000      -0.00302052       0.01775325       0.22199751
Pd       2.74580393       2.76051875       5.42828823  T       0.00000000       0.00000000       0.00000000       0.00510191       0.00019993      -0.00087473
Pd       0.00279943       2.75542483       5.43348363  T       0.00000000       0.00000000       0.00000000      -0.00213995      -0.00061728       0.00354803
Pd       8.25229268      -0.00468699       5.42598395  T       0.00000000       0.00000000       0.00000000       0.01007209       0.00439907      -0.00674227
Pd       5.49817366      -0.00111525       5.42737811  T       0.00000000       0.00000000       0.00000000       0.00292692       0.00139636      -0.00445355
Pd       2.74256486      -0.00015618       5.42772690  T       0.00000000       0.00000000       0.00000000       0.00058723      -0.00243772      -0.00148072
Pd      -0.00304789       0.00253706       5.43127488  T       0.00000000       0.00000000       0.00000000       0.00468997       0.00657362       0.00096065
Pd       9.62910413       9.62910413       3.44537281  F       0.00000000       0.00000000       0.00000000       0.00598230      -0.01454249       0.23129176
Pd       6.87793152       9.62910413       3.44537281  F       0.00000000       0.00000000       0.00000000      -0.00291795      -0.01149281       0.22475400
Pd       4.12675891       9.62910413       3.44537281  F       0.00000000       0.00000000       0.00000000      -0.00977238       0.00369548       0.21337671
Pd       1.37558630       9.62910413       3.44537281  F       0.00000000       0.00000000       0.00000000      -0.01874870      -0.01136431       0.23088631
Pd       9.62910413       6.87793152       3.44537281  F       0.00000000       0.00000000       0.00000000       0.01889624       0.00846173       0.22213875
Pd       6.87793152       6.87793152       3.44537281  F       0.00000000       0.00000000       0.00000000      -0.01730327      -0.00261066       0.20995034
Pd       4.12675891       6.87793152       3.44537281  F       0.00000000       0.00000000       0.00000000       0.01254503      -0.00177605       0.22777968
Pd       1.37558630       6.87793152       3.44537281  F       0.00000000       0.00000000       0.00000000      -0.01254680       0.00562908       0.23368248
Pd       9.62910413       4.12675891       3.44537281  F       0.00000000       0.00000000       0.00000000       0.01461137       0.00369167       0.21963679
Pd       6.87793152       4.12675891       3.44537281  F       0.00000000       0.00000000       0.00000000      -0.00399097       0.01208912       0.21961663
Pd       4.12675891       4.12675891       3.44537281  F       0.00000000       0.00000000       0.00000000      -0.00041533       0.02129290       0.23712210
Pd       5.49933757       8.25792486       9.41203403  T       0.00000000       0.00000000       0.00000000      -0.00995243       0.00325095      -0.00643307
Pd       8.24425335       8.27331496       9.41267674  T       0.00000000       0.00000000       0.00000000       0.00806218       0.00846404      -0.00432808
C       -0.06753277       1.38973872      10.90344501  T       0.00000000       0.00000000       0.00000000      -0.00428626      -0.00038246       0.02460385
O       -0.12410291       1.41272441      12.08931347  T       0.00000000       0.00000000       0.00000000      -0.00261585      -0.00232717       0.01142330
O        9.61940442       5.45182412      11.01698281  T       0.00000000       0.00000000       0.00000000       0.00340630       0.00107270       0.03140116
C        9.60785606       6.48347717      12.00935204  T       0.00000000       0.00000000       0.00000000       0.00256349      -0.00540145      -0.03889632
H       10.53107666       6.41101392      12.61323366  T       0.00000000       0.00000000       0.00000000       0.00554445      -0.00517702      -0.00186421
H        9.55708002       7.50180276      11.55181627  T       0.00000000       0.00000000       0.00000000      -0.00381536      -0.00354735      -0.00357682
H        8.72578293       6.34030233      12.66071242  T       0.00000000       0.00000000       0.00000000      -0.00428195      -0.00176688      -0.00809333
