87
Lattice="11.004690437655821 0.0 0.0 0.0 11.004690437655821 0.0 0.0 0.0 27.781491233325184" Properties=species:S:1:pos:R:3:move_mask:L:1:momenta:R:3:forces:R:3 idx=1947 E_MACE=-432.0693057110073 d_min=1.9713761282499753 d_reactive=4.267052711905463 rank=5 dE_rel_meV=0.35782329820222003 converged=T energy=-432.0693057110073 stress="0.007799467764407308 8.862946152236978e-06 0.00014394470105032878 8.862946152236978e-06 0.007431993548376539 -0.00016699789261319083 0.00014394470105032878 -0.00016699789261319083 -0.0021939224656427492" pbc="T T T"
Pd       0.00000000       0.00000000       1.50000000  F       0.00000000       0.00000000       0.00000000       0.00044978       0.00086849      -0.22729985
Pd       4.13559575       6.86964400       7.41378374  T       0.00000000       0.00000000       0.00000000      -0.00079074      -0.00186757       0.00347340
Pd       1.38947461       6.87786659       7.43416471  T       0.00000000       0.00000000       0.00000000      -0.00818100       0.00907286       0.00398043
Pd       9.64820621       4.12971936       7.43095177  T       0.00000000       0.00000000       0.00000000      -0.00376568      -0.00916701       0.01684793
Pd       6.89076914       4.11809298       7.40725271  T       0.00000000       0.00000000       0.00000000      -0.00045803       0.00199884       0.00552788
Pd       4.12762459       4.11379531       7.39848818  T       0.00000000       0.00000000       0.00000000       0.00839664       0.01000031       0.01125023
Pd       1.36638839       4.13084538       7.43168687  T       0.00000000       0.00000000       0.00000000      -0.00388667       0.00004906       0.00551956
Pd       9.63240323       1.36964698       7.41084591  T       0.00000000       0.00000000       0.00000000      -0.00021814       0.00759574       0.00548233
Pd       6.87953784       6.87554087       7.42147724  T       0.00000000       0.00000000       0.00000000      -0.01584458       0.00405315       0.00862863
Pd       6.88363464       1.36243467       7.40911718  T       0.00000000       0.00000000       0.00000000      -0.00152611       0.00273481      -0.00297136
Pd       1.37746093       1.36645186       7.41090587  T       0.00000000       0.00000000       0.00000000      -0.01094757      -0.00186340       0.00269378
Pd       8.26162864       8.25290735       5.43839312  T       0.00000000       0.00000000       0.00000000      -0.00183661      -0.00368997      -0.00154784
Pd       5.50673006       8.25033772       5.43050795  T       0.00000000       0.00000000       0.00000000      -0.00715262      -0.00309140       0.00018175
Pd       2.75574821       8.25217853       5.43335962  T       0.00000000       0.00000000       0.00000000      -0.01493174       0.00136842      -0.00076561
Pd       0.00882126       8.24767168       5.43689392  T       0.00000000       0.00000000       0.00000000      -0.00672103       0.00222849       0.00825141
Pd       8.26523921       5.49974983       5.43001555  T       0.00000000       0.00000000       0.00000000      -0.00266711      -0.00244058      -0.00783969
Pd       5.50940457       5.50020515       5.42492597  T       0.00000000       0.00000000       0.00000000      -0.00276405       0.00169545       0.00047336
Pd       4.13068133       1.36319524       7.40248331  T       0.00000000       0.00000000       0.00000000       0.00153660      -0.00017052      -0.00054655
Pd       2.74793537       5.49960994       5.42940052  T       0.00000000       0.00000000       0.00000000       0.00155955       0.00362408      -0.01091245
Pd       9.64160327       6.87347639       7.43382032  T       0.00000000       0.00000000       0.00000000       0.00504038       0.00316625      -0.00937906
Pd       4.12851876       9.62074201       7.41947929  T       0.00000000       0.00000000       0.00000000       0.00133253       0.00976246       0.00083403
Pd       2.76841384       8.25529167       9.49974004  T       0.00000000       0.00000000       0.00000000      -0.01727587      -0.00544201      -0.00698230
Pd       0.01893081       8.30442320       9.47825158  T       0.00000000       0.00000000       0.00000000       0.00328019      -0.00214726      -0.00785675
Pd       8.24505524       5.48747167       9.40404689  T       0.00000000       0.00000000       0.00000000      -0.00727075      -0.00353361       0.00412970
Pd       5.51520309       5.45568927       9.39678933  T       0.00000000       0.00000000       0.00000000       0.00025305       0.00627145      -0.00320538
Pd       2.78793770       5.46151210       9.39363006  T       0.00000000       0.00000000       0.00000000      -0.00478469      -0.00243900       0.00944750
Pd       0.01253128       5.42723340       9.46303311  T       0.00000000       0.00000000       0.00000000       0.00258751       0.00939768       0.01196951
Pd       8.25714518       2.73890697       9.40635209  T       0.00000000       0.00000000       0.00000000      -0.00504842       0.00590767       0.00384617
Pd       1.37775266       9.60677582       7.45278558  T       0.00000000       0.00000000       0.00000000      -0.00309124      -0.00369467       0.00074502
Pd       5.50810413       2.73252216       9.39867014  T       0.00000000       0.00000000       0.00000000      -0.00500954       0.01607430       0.00152658
Pd       0.00445045       2.71784199       9.41372716  T       0.00000000       0.00000000       0.00000000       0.00179994      -0.00116604      -0.00718260
Pd       8.25887782      -0.00120776       9.41072253  T       0.00000000       0.00000000       0.00000000      -0.00640251       0.00622248       0.01422582
Pd       5.50853919       0.00625346       9.40140364  T       0.00000000       0.00000000       0.00000000      -0.00356287       0.00979783       0.00505594
Pd       2.75669013       0.02042724       9.40446143  T       0.00000000       0.00000000       0.00000000       0.00070484       0.00951974       0.00231082
Pd       0.00204920       0.01724479       9.41615985  T       0.00000000       0.00000000       0.00000000       0.01299550      -0.00026832       0.00499844
Pd       9.64973854       9.61352815       7.44336587  T       0.00000000       0.00000000       0.00000000       0.00551385      -0.00280247      -0.00847030
Pd       6.87950472       9.61287668       7.43046569  T       0.00000000       0.00000000       0.00000000      -0.00849582       0.00539744      -0.00250287
Pd       2.75534080       2.73778822       9.40275108  T       0.00000000       0.00000000       0.00000000       0.00469696       0.00627061       0.00042693
Pd       0.00178186       5.50192921       5.43063284  T       0.00000000       0.00000000       0.00000000       0.00025024       0.01120436      -0.01317634
Pd       8.25691886       2.74878432       5.42957876  T       0.00000000       0.00000000       0.00000000       0.00908279      -0.00345342       0.00183486
Pd       5.50503211       2.74705974       5.42751745  T       0.00000000       0.00000000       0.00000000       0.00304553      -0.00914816      -0.00448981
Pd       1.37558630       1.37558630       3.44537281  F       0.00000000       0.00000000       0.00000000      -0.00820338      -0.01098879       0.23137477
Pd       8.25351783       8.25351783       1.50000000  F       0.00000000       0.00000000       0.00000000      -0.00201131       0.00001634      -0.22380414
Pd       5.50234522       8.25351783       1.50000000  F       0.00000000       0.00000000       0.00000000      -0.00068211       0.00043845      -0.22125081
Pd       2.75117261       8.25351783       1.50000000  F       0.00000000       0.00000000       0.00000000       0.00000444       0.00015550      -0.22079181
Pd       0.00000000       8.25351783       1.50000000  F       0.00000000       0.00000000       0.00000000       0.00000453       0.00055488      -0.22205600
Pd       8.25351783       5.50234522       1.50000000  F       0.00000000       0.00000000       0.00000000      -0.00181570       0.00056965      -0.22708932
Pd       5.50234522       5.50234522       1.50000000  F       0.00000000       0.00000000       0.00000000      -0.00129534       0.00103918      -0.22623505
Pd       4.12675891       1.37558630       3.44537281  F       0.00000000       0.00000000       0.00000000       0.00562650      -0.01252574       0.21371861
Pd       2.75117261       5.50234522       1.50000000  F       0.00000000       0.00000000       0.00000000      -0.00020228       0.00158225      -0.22551724
Pd       8.25351783       2.75117261       1.50000000  F       0.00000000       0.00000000       0.00000000      -0.00102574       0.00171140      -0.22570886
Pd       5.50234522       2.75117261       1.50000000  F       0.00000000       0.00000000       0.00000000      -0.00104591       0.00058073      -0.22740819
Pd       2.75117261       2.75117261       1.50000000  F       0.00000000       0.00000000       0.00000000       0.00069760       0.00145480      -0.22728021
Pd       0.00000000       2.75117261       1.50000000  F       0.00000000       0.00000000       0.00000000      -0.00091948       0.00128698      -0.22513227
Pd       8.25351783       0.00000000       1.50000000  F       0.00000000       0.00000000       0.00000000      -0.00254362       0.00051118      -0.22823082
Pd       5.50234522       0.00000000       1.50000000  F       0.00000000       0.00000000       0.00000000      -0.00154617       0.00067091      -0.22542299
Pd       2.75117261       0.00000000       1.50000000  F       0.00000000       0.00000000       0.00000000       0.00085545      -0.00020288      -0.22617150
Pd       0.00000000       5.50234522       1.50000000  F       0.00000000       0.00000000       0.00000000       0.00024524      -0.00056522      -0.22561058
Pd       6.87793152       1.37558630       3.44537281  F       0.00000000       0.00000000       0.00000000       0.00147082      -0.01160394       0.21400364
Pd       9.62910413       1.37558630       3.44537281  F       0.00000000       0.00000000       0.00000000       0.01235915       0.00339998       0.22247625
Pd       1.37558630       4.12675891       3.44537281  F       0.00000000       0.00000000       0.00000000      -0.00052997      -0.00726936       0.21414443
Pd       2.74797633       2.74747104       5.42740416  T       0.00000000       0.00000000       0.00000000       0.00404674      -0.00637694      -0.00191053
Pd       0.00214441       2.75259552       5.43358299  T       0.00000000       0.00000000       0.00000000      -0.00197359      -0.00824700       0.00007521
Pd       8.26094810      -0.00532460       5.42990863  T       0.00000000       0.00000000       0.00000000      -0.00349971      -0.00112649      -0.00408958
Pd       5.50737283      -0.00940028       5.42736941  T       0.00000000       0.00000000       0.00000000       0.00356479       0.00227617       0.00311515
Pd       2.74771213      -0.00790856       5.42924715  T       0.00000000       0.00000000       0.00000000       0.00152368      -0.00026332      -0.00500591
Pd       0.00013941      -0.00782405       5.43298988  T       0.00000000       0.00000000       0.00000000       0.00149609      -0.00094937      -0.00341283
Pd       9.62910413       9.62910413       3.44537281  F       0.00000000       0.00000000       0.00000000       0.01077363      -0.01926213       0.23483433
Pd       6.87793152       9.62910413       3.44537281  F       0.00000000       0.00000000       0.00000000       0.02470879      -0.01880268       0.22923061
Pd       4.12675891       9.62910413       3.44537281  F       0.00000000       0.00000000       0.00000000       0.00041891      -0.01142904       0.22080079
Pd       1.37558630       9.62910413       3.44537281  F       0.00000000       0.00000000       0.00000000      -0.00253637      -0.01069831       0.22455942
Pd       9.62910413       6.87793152       3.44537281  F       0.00000000       0.00000000       0.00000000       0.00404779       0.01452158       0.22459796
Pd       6.87793152       6.87793152       3.44537281  F       0.00000000       0.00000000       0.00000000       0.02720218       0.00636352       0.23179073
Pd       4.12675891       6.87793152       3.44537281  F       0.00000000       0.00000000       0.00000000       0.00201443      -0.00300899       0.22495969
Pd       1.37558630       6.87793152       3.44537281  F       0.00000000       0.00000000       0.00000000       0.00905343       0.00378151       0.22175190
Pd       9.62910413       4.12675891       3.44537281  F       0.00000000       0.00000000       0.00000000       0.00818788      -0.01815901       0.20573445
Pd       6.87793152       4.12675891       3.44537281  F       0.00000000       0.00000000       0.00000000       0.01535600      -0.00324534       0.22303602
Pd       4.12675891       4.12675891       3.44537281  F       0.00000000       0.00000000       0.00000000      -0.00289510      -0.00520872       0.22439090
Pd       5.52465015       8.23036853       9.50337524  T       0.00000000       0.00000000       0.00000000       0.00685115       0.01066282       0.00393160
Pd       8.24312263       8.25277754       9.40974307  T       0.00000000       0.00000000       0.00000000       0.00012870      -0.00473485      -0.00137619
C        4.14579999       8.12466694      10.90833904  T       0.00000000       0.00000000       0.00000000      -0.01145424       0.00333065      -0.03371607
O        4.13038505       8.02675183      12.09127157  T       0.00000000       0.00000000       0.00000000      -0.00327278       0.00109773       0.02125551
O        0.07351487       6.85403205      11.00692764  T       0.00000000       0.00000000       0.00000000      -0.01156043       0.00439471      -0.00063243
C       -0.97490943       6.84586530      11.97946613  T       0.00000000       0.00000000       0.00000000       0.01333472       0.00608447       0.00498510
H       -0.88075417       7.74928973      12.61043713  T       0.00000000       0.00000000       0.00000000      -0.01717158      -0.00580874      -0.00133369
H       -1.98686818       6.84122802      11.50172276  T       0.00000000       0.00000000       0.00000000       0.00996905       0.00311699       0.01937961
H       -0.87299847       5.94057834      12.60659952  T       0.00000000       0.00000000       0.00000000      -0.00764940       0.00297790      -0.00349294
