87
Lattice="11.004690437655821 0.0 0.0 0.0 11.004690437655821 0.0 0.0 0.0 27.781491233325184" Properties=species:S:1:pos:R:3:move_mask:L:1:momenta:R:3:forces:R:3 idx=3580 E_MACE=-432.0694250052718 d_min=1.9717744799558377 d_reactive=4.265275785835168 rank=2 dE_rel_meV=0.23852903370880085 converged=T energy=-432.0694250052718 stress="0.007873157261768664 -3.879639443924436e-06 0.00015523507996635663 -3.879639443924436e-06 0.0075031781204723475 5.0287809904440864e-05 0.00015523507996635663 5.0287809904440864e-05 -0.00210209335129795" pbc="T T T"
Pd       0.00000000       0.00000000       1.50000000  F       0.00000000       0.00000000       0.00000000      -0.00258020      -0.00071852      -0.22833776
Pd       4.13805289       6.88564795       7.43814514  T       0.00000000       0.00000000       0.00000000      -0.00010534       0.00753547      -0.01283457
Pd       1.38618645       6.87940516       7.43345990  T       0.00000000       0.00000000       0.00000000       0.00232192      -0.00359668      -0.00416732
Pd       9.64070549       4.12965613       7.40951189  T       0.00000000       0.00000000       0.00000000      -0.00116997       0.01140735       0.00023295
Pd       6.87926621       4.13081725       7.40207504  T       0.00000000       0.00000000       0.00000000      -0.00204262       0.00377958       0.01037395
Pd       4.11681597       4.14222423       7.43629860  T       0.00000000       0.00000000       0.00000000       0.00333203       0.00107807      -0.00432454
Pd       1.39581922       4.13545756       7.43381086  T       0.00000000       0.00000000       0.00000000      -0.00410042       0.00713379       0.00774562
Pd       9.63904663       1.37533308       7.41052154  T       0.00000000       0.00000000       0.00000000      -0.00406505      -0.01261994       0.00421892
Pd       6.88228439       6.88470305       7.41781047  T       0.00000000       0.00000000       0.00000000       0.00238940      -0.00298420      -0.00363974
Pd       6.88636370       1.38045982       7.40260359  T       0.00000000       0.00000000       0.00000000       0.00208866      -0.01563222       0.00824059
Pd       1.38253257       1.37603439       7.41113908  T       0.00000000       0.00000000       0.00000000      -0.00203090      -0.00017971       0.01317489
Pd       8.25787279       8.25776942       5.43239633  T       0.00000000       0.00000000       0.00000000      -0.01076782      -0.00031626      -0.00537482
Pd       5.50599395       8.25781743       5.43332453  T       0.00000000       0.00000000       0.00000000      -0.00862001      -0.00150114       0.00757717
Pd       2.75911067       8.25195081       5.43804425  T       0.00000000       0.00000000       0.00000000      -0.00038513       0.00110539       0.00562038
Pd       0.00802492       8.25606679       5.43860672  T       0.00000000       0.00000000       0.00000000      -0.00683582      -0.00087370      -0.00132071
Pd       8.25919106       5.50915020       5.42744724  T       0.00000000       0.00000000       0.00000000      -0.00086305      -0.00641742      -0.00781592
Pd       5.49889009       5.50514416       5.42969027  T       0.00000000       0.00000000       0.00000000      -0.00511141       0.00669684       0.00014674
Pd       4.13310680       1.37788102       7.41039137  T       0.00000000       0.00000000       0.00000000      -0.00959054      -0.01145889       0.00459009
Pd       2.75264323       5.50680147       5.42930190  T       0.00000000       0.00000000       0.00000000       0.00024636       0.00119814       0.00321963
Pd       9.62745787       6.88918984       7.42344061  T       0.00000000       0.00000000       0.00000000      -0.01083873      -0.01083968       0.00377792
Pd       4.13245668       9.61694737       7.45056761  T       0.00000000       0.00000000       0.00000000       0.00010649      -0.00825239       0.00112597
Pd       2.77448413       8.31842984       9.47269355  T       0.00000000       0.00000000       0.00000000      -0.00289282       0.01099953      -0.01337906
Pd      -0.01106608       8.25425399       9.41254912  T       0.00000000       0.00000000       0.00000000       0.01125775       0.00416265       0.00262365
Pd       8.26164382       5.48737106       9.40162123  T       0.00000000       0.00000000       0.00000000       0.00560234      -0.02053400      -0.01074233
Pd       5.53367077       5.47083869       9.40141616  T       0.00000000       0.00000000       0.00000000      -0.00176221       0.00375286      -0.00178540
Pd       2.75487814       5.44491107       9.47351612  T       0.00000000       0.00000000       0.00000000       0.00019777      -0.01026371       0.00335164
Pd      -0.01333557       5.48923498       9.40241354  T       0.00000000       0.00000000       0.00000000      -0.00359412       0.01223742       0.00534772
Pd       8.26218634       2.76155782       9.40192903  T       0.00000000       0.00000000       0.00000000      -0.00464126       0.00289964      -0.00153210
Pd       1.39756550       9.61967804       7.44412655  T       0.00000000       0.00000000       0.00000000       0.00714672       0.00163748      -0.00525191
Pd       5.51141055       2.74832618       9.40500793  T       0.00000000       0.00000000       0.00000000      -0.00222470       0.00243189      -0.00109270
Pd       0.00574309       2.74532125       9.40677631  T       0.00000000       0.00000000       0.00000000      -0.00092757      -0.00414322       0.01066983
Pd       8.26533429       0.03647588       9.40500073  T       0.00000000       0.00000000       0.00000000      -0.00633759      -0.00812509      -0.00497875
Pd       5.51428572       0.03054553       9.40302667  T       0.00000000       0.00000000       0.00000000      -0.00332699       0.01342001       0.00241349
Pd       2.76133968       0.03114864       9.41434950  T       0.00000000       0.00000000       0.00000000       0.00166543      -0.00822937       0.00780395
Pd       0.01134705       0.00387966       9.41447748  T       0.00000000       0.00000000       0.00000000      -0.00494912       0.00789621       0.00233980
Pd       9.63334862       9.62556410       7.43287302  T       0.00000000       0.00000000       0.00000000      -0.00546023       0.00646198       0.00016833
Pd       6.88372330       9.63693388       7.41982233  T       0.00000000       0.00000000       0.00000000      -0.00586149      -0.00145341       0.00415258
Pd       2.75959375       2.73134298       9.41322380  T       0.00000000       0.00000000       0.00000000      -0.00126185      -0.00010983       0.00256066
Pd       0.01038514       5.50253836       5.43116070  T       0.00000000       0.00000000       0.00000000      -0.00194872       0.00141571      -0.00319171
Pd       8.25845399       2.75553663       5.42969905  T       0.00000000       0.00000000       0.00000000      -0.00251092      -0.00618261      -0.01749512
Pd       5.50140488       2.75446038       5.42949432  T       0.00000000       0.00000000       0.00000000      -0.00194728      -0.00145944      -0.00995915
Pd       1.37558630       1.37558630       3.44537281  F       0.00000000       0.00000000       0.00000000       0.01491185       0.01487195       0.22473180
Pd       8.25351783       8.25351783       1.50000000  F       0.00000000       0.00000000       0.00000000      -0.00102451      -0.00027018      -0.22079440
Pd       5.50234522       8.25351783       1.50000000  F       0.00000000       0.00000000       0.00000000      -0.00055542      -0.00121778      -0.22077255
Pd       2.75117261       8.25351783       1.50000000  F       0.00000000       0.00000000       0.00000000      -0.00006134       0.00003188      -0.22223075
Pd       0.00000000       8.25351783       1.50000000  F       0.00000000       0.00000000       0.00000000      -0.00179802      -0.00092015      -0.22356785
Pd       8.25351783       5.50234522       1.50000000  F       0.00000000       0.00000000       0.00000000      -0.00142759       0.00023019      -0.22638836
Pd       5.50234522       5.50234522       1.50000000  F       0.00000000       0.00000000       0.00000000      -0.00030902       0.00042716      -0.22611549
Pd       4.12675891       1.37558630       3.44537281  F       0.00000000       0.00000000       0.00000000      -0.00322453       0.00396028       0.23440316
Pd       2.75117261       5.50234522       1.50000000  F       0.00000000       0.00000000       0.00000000       0.00024762      -0.00088111      -0.22583990
Pd       8.25351783       2.75117261       1.50000000  F       0.00000000       0.00000000       0.00000000      -0.00160794      -0.00066055      -0.22648279
Pd       5.50234522       2.75117261       1.50000000  F       0.00000000       0.00000000       0.00000000      -0.00007509       0.00017554      -0.22725218
Pd       2.75117261       2.75117261       1.50000000  F       0.00000000       0.00000000       0.00000000      -0.00095413       0.00019182      -0.22474820
Pd       0.00000000       2.75117261       1.50000000  F       0.00000000       0.00000000       0.00000000      -0.00075809       0.00021177      -0.22555500
Pd       8.25351783       0.00000000       1.50000000  F       0.00000000       0.00000000       0.00000000      -0.00186753      -0.00065401      -0.22559011
Pd       5.50234522       0.00000000       1.50000000  F       0.00000000       0.00000000       0.00000000       0.00038654      -0.00155687      -0.22674894
Pd       2.75117261       0.00000000       1.50000000  F       0.00000000       0.00000000       0.00000000       0.00035963      -0.00043307      -0.22767172
Pd       0.00000000       5.50234522       1.50000000  F       0.00000000       0.00000000       0.00000000      -0.00177990      -0.00037973      -0.22748571
Pd       6.87793152       1.37558630       3.44537281  F       0.00000000       0.00000000       0.00000000       0.01470493       0.00641602       0.21818285
Pd       9.62910413       1.37558630       3.44537281  F       0.00000000       0.00000000       0.00000000       0.00579127       0.00289902       0.21907321
Pd       1.37558630       4.12675891       3.44537281  F       0.00000000       0.00000000       0.00000000       0.00669175      -0.01447521       0.21101622
Pd       2.75491991       2.75707495       5.43501019  T       0.00000000       0.00000000       0.00000000      -0.00184172      -0.00000687      -0.00461517
Pd       0.00490732       2.75266673       5.43202835  T       0.00000000       0.00000000       0.00000000       0.00934516      -0.00226850      -0.01224528
Pd       8.26241785      -0.00105977       5.42859856  T       0.00000000       0.00000000       0.00000000      -0.00269019      -0.00226919      -0.00310077
Pd       5.50283733      -0.00043055       5.42789903  T       0.00000000       0.00000000       0.00000000      -0.00691726      -0.00850322       0.00480247
Pd       2.75329073      -0.00262670       5.43252449  T       0.00000000       0.00000000       0.00000000       0.00529342      -0.00818904       0.00048536
Pd       0.01017422      -0.00153803       5.42991191  T       0.00000000       0.00000000       0.00000000      -0.00864407      -0.00216243      -0.00222638
Pd       9.62910413       9.62910413       3.44537281  F       0.00000000       0.00000000       0.00000000       0.02553409      -0.00945398       0.23333462
Pd       6.87793152       9.62910413       3.44537281  F       0.00000000       0.00000000       0.00000000       0.00760963       0.00022485       0.22608798
Pd       4.12675891       9.62910413       3.44537281  F       0.00000000       0.00000000       0.00000000      -0.00162520      -0.00152056       0.22853617
Pd       1.37558630       9.62910413       3.44537281  F       0.00000000       0.00000000       0.00000000       0.01310182      -0.01346297       0.23536557
Pd       9.62910413       6.87793152       3.44537281  F       0.00000000       0.00000000       0.00000000       0.02346343       0.01568832       0.23771414
Pd       6.87793152       6.87793152       3.44537281  F       0.00000000       0.00000000       0.00000000       0.00305088       0.01109530       0.22879229
Pd       4.12675891       6.87793152       3.44537281  F       0.00000000       0.00000000       0.00000000       0.00852475       0.01515396       0.22117383
Pd       1.37558630       6.87793152       3.44537281  F       0.00000000       0.00000000       0.00000000       0.00038962       0.02114037       0.22593821
Pd       9.62910413       4.12675891       3.44537281  F       0.00000000       0.00000000       0.00000000       0.01412994       0.00758360       0.23186685
Pd       6.87793152       4.12675891       3.44537281  F       0.00000000       0.00000000       0.00000000       0.00167220       0.00692055       0.23046927
Pd       4.12675891       4.12675891       3.44537281  F       0.00000000       0.00000000       0.00000000       0.00194669      -0.00153578       0.21723170
Pd       5.52047830       8.26481427       9.50426343  T       0.00000000       0.00000000       0.00000000      -0.01393457       0.00557849      -0.02389350
Pd       8.27617145       8.26245698       9.50568067  T       0.00000000       0.00000000       0.00000000       0.00118089      -0.00868908       0.00780749
C        6.89901052       8.14575282      10.91198879  T       0.00000000       0.00000000       0.00000000      -0.01097508      -0.00073353      -0.03816288
O        6.88183191       8.04649001      12.09473890  T       0.00000000       0.00000000       0.00000000       0.00165903       0.00365181       0.02593129
O        2.82593648       6.88358077      11.00980011  T       0.00000000       0.00000000       0.00000000      -0.01757485      -0.00206789       0.01162843
C        1.78127318       6.91683980      11.98590184  T       0.00000000       0.00000000       0.00000000       0.00233389       0.00150496       0.01696302
H        1.80481912       5.98071433      12.57459395  T       0.00000000       0.00000000       0.00000000      -0.00439179       0.00332581      -0.01364495
H        1.95230408       7.78102701      12.65445950  T       0.00000000       0.00000000       0.00000000      -0.00631980      -0.00126101       0.00170189
H        0.77165818       7.02025058      11.51507932  T       0.00000000       0.00000000       0.00000000       0.01042767      -0.00906950       0.00764219
