87
Lattice="11.004690437655821 0.0 0.0 0.0 11.004690437655821 0.0 0.0 0.0 27.781491233325184" Properties=species:S:1:pos:R:3:move_mask:L:1:momenta:R:3:forces:R:3 idx=5187 E_MACE=-432.0694304648193 d_min=1.9717631761693024 d_reactive=4.2653446083226925 rank=1 dE_rel_meV=0.23306948622803247 converged=T energy=-432.0694304648193 stress="0.007873214112373673 -3.88891986925559e-06 0.00015490730926594865 -3.88891986925559e-06 0.007503279055590907 5.02730454345557e-05 0.00015490730926594865 5.02730454345557e-05 -0.0021019425024975183" pbc="T T T"
Pd       0.00000000       0.00000000       1.50000000  F       0.00000000       0.00000000       0.00000000      -0.00186492      -0.00065401      -0.22559063
Pd       4.13734860       6.87941213       7.43345233  T       0.00000000       0.00000000       0.00000000       0.00227765      -0.00364785      -0.00417292
Pd       1.37391593       6.88917834       7.42344134  T       0.00000000       0.00000000       0.00000000      -0.01073538      -0.01073390       0.00380646
Pd       9.63042643       4.13081252       7.40207785  T       0.00000000       0.00000000       0.00000000      -0.00202977       0.00376516       0.01034084
Pd       6.86798287       4.14222846       7.43630063  T       0.00000000       0.00000000       0.00000000       0.00328010       0.00107171      -0.00425879
Pd       4.14698361       4.13545822       7.43381030  T       0.00000000       0.00000000       0.00000000      -0.00411605       0.00713103       0.00778157
Pd       1.38717323       4.12965698       7.40950609  T       0.00000000       0.00000000       0.00000000      -0.00111897       0.01130564       0.00025702
Pd       9.63752801       1.38044884       7.40261014  T       0.00000000       0.00000000       0.00000000       0.00207716      -0.01557492       0.00820994
Pd       6.88921511       6.88564993       7.43812911  T       0.00000000       0.00000000       0.00000000      -0.00010322       0.00751325      -0.01273301
Pd       6.88426419       1.37788146       7.41039667  T       0.00000000       0.00000000       0.00000000      -0.00952925      -0.01143023       0.00460363
Pd       1.38551976       1.37532162       7.41052671  T       0.00000000       0.00000000       0.00000000      -0.00406596      -0.01252909       0.00419365
Pd       8.25716228       8.25781677       5.43332987  T       0.00000000       0.00000000       0.00000000      -0.00860605      -0.00147173       0.00754818
Pd       5.51028087       8.25195310       5.43803852  T       0.00000000       0.00000000       0.00000000      -0.00042808       0.00109198       0.00561309
Pd       2.75918279       8.25606722       5.43861086  T       0.00000000       0.00000000       0.00000000      -0.00680481      -0.00087457      -0.00135018
Pd       0.00434107       8.25776825       5.43240019  T       0.00000000       0.00000000       0.00000000      -0.01073015      -0.00032468      -0.00539989
Pd       8.25005364       5.50514801       5.42969432  T       0.00000000       0.00000000       0.00000000      -0.00505652       0.00665725       0.00010783
Pd       5.50380936       5.50679892       5.42930242  T       0.00000000       0.00000000       0.00000000       0.00023698       0.00121528       0.00319412
Pd       4.13369876       1.37603979       7.41114598  T       0.00000000       0.00000000       0.00000000      -0.00207152      -0.00019652       0.01313708
Pd       2.76155071       5.50253993       5.43116177  T       0.00000000       0.00000000       0.00000000      -0.00193327       0.00140307      -0.00320145
Pd       9.63345318       6.88469913       7.41781786  T       0.00000000       0.00000000       0.00000000       0.00231949      -0.00301035      -0.00368489
Pd       4.14872619       9.61967713       7.44411957  T       0.00000000       0.00000000       0.00000000       0.00710048       0.00169583      -0.00525761
Pd       2.74010324       8.25426520       9.41254753  T       0.00000000       0.00000000       0.00000000       0.01114421       0.00414152       0.00259290
Pd       0.02263214       8.26244126       9.50568557  T       0.00000000       0.00000000       0.00000000       0.00132812      -0.00868707       0.00778808
Pd       8.28482294       5.47084723       9.40142072  T       0.00000000       0.00000000       0.00000000      -0.00178605       0.00374962      -0.00180872
Pd       5.50601887       5.44492406       9.47352118  T       0.00000000       0.00000000       0.00000000       0.00025446      -0.01036496       0.00325626
Pd       2.73782013       5.48924002       9.40240683  T       0.00000000       0.00000000       0.00000000      -0.00362765       0.01219292       0.00531507
Pd       0.00810481       5.48735096       9.40162361  T       0.00000000       0.00000000       0.00000000       0.00562524      -0.02050350      -0.01071561
Pd       8.26258053       2.74833104       9.40500982  T       0.00000000       0.00000000       0.00000000      -0.00223412       0.00244840      -0.00109460
Pd       1.37981294       9.62556575       7.43287375  T       0.00000000       0.00000000       0.00000000      -0.00542979       0.00638828       0.00021908
Pd       5.51076278       2.73134536       9.41323732  T       0.00000000       0.00000000       0.00000000      -0.00127217      -0.00008303       0.00251764
Pd       0.00866637       2.76154697       9.40192717  T       0.00000000       0.00000000       0.00000000      -0.00465412       0.00288484      -0.00152848
Pd       8.26544051       0.03056054       9.40304283  T       0.00000000       0.00000000       0.00000000      -0.00334598       0.01337531       0.00236878
Pd       5.51248931       0.03114490       9.41434301  T       0.00000000       0.00000000       0.00000000       0.00169482      -0.00823400       0.00784898
Pd       2.76250391       0.00388666       9.41448325  T       0.00000000       0.00000000       0.00000000      -0.00495731       0.00785767       0.00232131
Pd       0.01179563       0.03646238       9.40501464  T       0.00000000       0.00000000       0.00000000      -0.00630119      -0.00810888      -0.00498836
Pd       9.63488530       9.63693063       7.41983432  T       0.00000000       0.00000000       0.00000000      -0.00588854      -0.00142034       0.00409973
Pd       6.88361266       9.61694814       7.45057043  T       0.00000000       0.00000000       0.00000000       0.00014877      -0.00823310       0.00113595
Pd       2.75690607       2.74531622       9.40678362  T       0.00000000       0.00000000       0.00000000      -0.00091170      -0.00407822       0.01062836
Pd       0.00566746       5.50914466       5.42744592  T       0.00000000       0.00000000       0.00000000      -0.00090171      -0.00640194      -0.00783162
Pd       8.25256808       2.75445930       5.42949752  T       0.00000000       0.00000000       0.00000000      -0.00190362      -0.00146576      -0.00995987
Pd       5.50608822       2.75707779       5.43501488  T       0.00000000       0.00000000       0.00000000      -0.00184011      -0.00003728      -0.00464312
Pd       1.37558630       1.37558630       3.44537281  F       0.00000000       0.00000000       0.00000000       0.00578613       0.00288401       0.21906194
Pd       8.25351783       8.25351783       1.50000000  F       0.00000000       0.00000000       0.00000000      -0.00055391      -0.00121709      -0.22077267
Pd       5.50234522       8.25351783       1.50000000  F       0.00000000       0.00000000       0.00000000      -0.00006045       0.00003058      -0.22223101
Pd       2.75117261       8.25351783       1.50000000  F       0.00000000       0.00000000       0.00000000      -0.00179688      -0.00092067      -0.22356767
Pd       0.00000000       8.25351783       1.50000000  F       0.00000000       0.00000000       0.00000000      -0.00102199      -0.00027038      -0.22079494
Pd       8.25351783       5.50234522       1.50000000  F       0.00000000       0.00000000       0.00000000      -0.00030791       0.00042758      -0.22611338
Pd       5.50234522       5.50234522       1.50000000  F       0.00000000       0.00000000       0.00000000       0.00024824      -0.00088301      -0.22583998
Pd       4.12675891       1.37558630       3.44537281  F       0.00000000       0.00000000       0.00000000       0.01491461       0.01485350       0.22475113
Pd       2.75117261       5.50234522       1.50000000  F       0.00000000       0.00000000       0.00000000      -0.00177861      -0.00038025      -0.22748552
Pd       8.25351783       2.75117261       1.50000000  F       0.00000000       0.00000000       0.00000000      -0.00007322       0.00017594      -0.22725117
Pd       5.50234522       2.75117261       1.50000000  F       0.00000000       0.00000000       0.00000000      -0.00095340       0.00019234      -0.22474976
Pd       2.75117261       2.75117261       1.50000000  F       0.00000000       0.00000000       0.00000000      -0.00075752       0.00021347      -0.22555569
Pd       0.00000000       2.75117261       1.50000000  F       0.00000000       0.00000000       0.00000000      -0.00160552      -0.00066030      -0.22648583
Pd       8.25351783       0.00000000       1.50000000  F       0.00000000       0.00000000       0.00000000       0.00038822      -0.00155693      -0.22674701
Pd       5.50234522       0.00000000       1.50000000  F       0.00000000       0.00000000       0.00000000       0.00035953      -0.00043088      -0.22767128
Pd       2.75117261       0.00000000       1.50000000  F       0.00000000       0.00000000       0.00000000      -0.00257907      -0.00071791      -0.22833682
Pd       0.00000000       5.50234522       1.50000000  F       0.00000000       0.00000000       0.00000000      -0.00142546       0.00023080      -0.22638890
Pd       6.87793152       1.37558630       3.44537281  F       0.00000000       0.00000000       0.00000000      -0.00323695       0.00395891       0.23441911
Pd       9.62910413       1.37558630       3.44537281  F       0.00000000       0.00000000       0.00000000       0.01467059       0.00640571       0.21819060
Pd       1.37558630       4.12675891       3.44537281  F       0.00000000       0.00000000       0.00000000       0.01412786       0.00758478       0.23185966
Pd       2.75607901       2.75266423       5.43202384  T       0.00000000       0.00000000       0.00000000       0.00931444      -0.00225836      -0.01218977
Pd       0.00493083       2.75553096       5.42969248  T       0.00000000       0.00000000       0.00000000      -0.00251521      -0.00618343      -0.01741783
Pd       8.25400112      -0.00043279       5.42790637  T       0.00000000       0.00000000       0.00000000      -0.00688341      -0.00849651       0.00477570
Pd       5.50446274      -0.00262768       5.43252925  T       0.00000000       0.00000000       0.00000000       0.00522660      -0.00815178       0.00044720
Pd       2.76133410      -0.00153728       5.42991658  T       0.00000000       0.00000000       0.00000000      -0.00857333      -0.00216404      -0.00225436
Pd       0.00888987      -0.00106195       5.42859869  T       0.00000000       0.00000000       0.00000000      -0.00269805      -0.00227482      -0.00309912
Pd       9.62910413       9.62910413       3.44537281  F       0.00000000       0.00000000       0.00000000       0.00758318       0.00022234       0.22609695
Pd       6.87793152       9.62910413       3.44537281  F       0.00000000       0.00000000       0.00000000      -0.00162197      -0.00151262       0.22853552
Pd       4.12675891       9.62910413       3.44537281  F       0.00000000       0.00000000       0.00000000       0.01307740      -0.01345109       0.23539624
Pd       1.37558630       9.62910413       3.44537281  F       0.00000000       0.00000000       0.00000000       0.02551529      -0.00946151       0.23334714
Pd       9.62910413       6.87793152       3.44537281  F       0.00000000       0.00000000       0.00000000       0.00303566       0.01109020       0.22880186
Pd       6.87793152       6.87793152       3.44537281  F       0.00000000       0.00000000       0.00000000       0.00851986       0.01515105       0.22117359
Pd       4.12675891       6.87793152       3.44537281  F       0.00000000       0.00000000       0.00000000       0.00036775       0.02114642       0.22595206
Pd       1.37558630       6.87793152       3.44537281  F       0.00000000       0.00000000       0.00000000       0.02344484       0.01569455       0.23772389
Pd       9.62910413       4.12675891       3.44537281  F       0.00000000       0.00000000       0.00000000       0.00164039       0.00692318       0.23048207
Pd       6.87793152       4.12675891       3.44537281  F       0.00000000       0.00000000       0.00000000       0.00194063      -0.00153734       0.21723545
Pd       4.12675891       4.12675891       3.44537281  F       0.00000000       0.00000000       0.00000000       0.00668620      -0.01447142       0.21101387
Pd       5.52563422       8.31842081       9.47268321  T       0.00000000       0.00000000       0.00000000      -0.00281354       0.01102311      -0.01334650
Pd       8.27163771       8.26482716       9.50424192  T       0.00000000       0.00000000       0.00000000      -0.01405075       0.00554243      -0.02389415
C        9.65015439       8.14575004      10.91197180  T       0.00000000       0.00000000       0.00000000      -0.01103403      -0.00074136      -0.03762517
O        9.63292460       8.04650770      12.09472884  T       0.00000000       0.00000000       0.00000000       0.00172587       0.00366540       0.02551045
O        5.57701075       6.88357185      11.00980716  T       0.00000000       0.00000000       0.00000000      -0.01771962      -0.00195431       0.01171289
C        4.53228241       6.91684987      11.98583916  T       0.00000000       0.00000000       0.00000000       0.00243642       0.00145908       0.01726419
H        4.55565987       5.98064868      12.57442567  T       0.00000000       0.00000000       0.00000000      -0.00438118       0.00344056      -0.01369986
H        4.70338030       7.78093857      12.65451724  T       0.00000000       0.00000000       0.00000000      -0.00631253      -0.00138550       0.00155835
H        3.52269630       7.02044545      11.51498449  T       0.00000000       0.00000000       0.00000000       0.01050525      -0.00905722       0.00754272
