87
Lattice="11.004690437655821 0.0 0.0 0.0 11.004690437655821 0.0 0.0 0.0 27.781491233325184" Properties=species:S:1:pos:R:3:move_mask:L:1:momenta:R:3:forces:R:3 idx=5063 E_MACE=-431.93753531460777 d_min=1.947186499654809 d_reactive=3.1229147114693814 rank=3167 dE_rel_meV=132.12821969773358 converged=T energy=-431.93753531460777 stress="0.007588206915582889 2.893836058706122e-06 0.00024755504403774377 2.893836058706122e-06 0.00768984668313462 3.682935163386311e-05 0.00024755504403774377 3.682935163386311e-05 -0.002027719709062792" pbc="T T T"
Pd       0.00000000       0.00000000       1.50000000  F       0.00000000       0.00000000       0.00000000       0.00069295      -0.00057028      -0.22649188
Pd       4.15665005       6.87097677       7.43009370  T       0.00000000       0.00000000       0.00000000       0.01475401      -0.00745308      -0.00031358
Pd       1.39300307       6.87711617       7.43078354  T       0.00000000       0.00000000       0.00000000      -0.02081524      -0.01361083       0.00879875
Pd       9.63608526       4.14914005       7.45200509  T       0.00000000       0.00000000       0.00000000      -0.01854063       0.00111646      -0.00141525
Pd       6.91377767       4.13569706       7.45410012  T       0.00000000       0.00000000       0.00000000      -0.01976600       0.01672124       0.00923681
Pd       4.15596648       4.12666313       7.42551808  T       0.00000000       0.00000000       0.00000000       0.00428559       0.00900100       0.00052179
Pd       1.38816958       4.14626740       7.43435928  T       0.00000000       0.00000000       0.00000000      -0.00289281       0.00682063       0.00093888
Pd       9.63563029       1.39060103       7.40335527  T       0.00000000       0.00000000       0.00000000       0.00798314      -0.01925845       0.01145186
Pd       6.91261188       6.86319717       7.45458061  T       0.00000000       0.00000000       0.00000000      -0.02147504      -0.01485565       0.00731167
Pd       6.88040497       1.38191274       7.40238815  T       0.00000000       0.00000000       0.00000000      -0.00152176      -0.00538673       0.01640155
Pd       1.38367292       1.38590567       7.40918440  T       0.00000000       0.00000000       0.00000000       0.00414251      -0.01137039       0.00124287
Pd       8.26139725       8.24294979       5.43449601  T       0.00000000       0.00000000       0.00000000      -0.00041840       0.00554151      -0.01660353
Pd       5.50948062       8.24341602       5.43377559  T       0.00000000       0.00000000       0.00000000      -0.00883707       0.00118749      -0.01482436
Pd       2.75542302       8.25145056       5.42809139  T       0.00000000       0.00000000       0.00000000       0.00706191       0.01202394      -0.01836474
Pd       0.00730483       8.24935131       5.43253368  T       0.00000000       0.00000000       0.00000000      -0.00721622       0.00440461      -0.01142009
Pd       8.26552994       5.50280053       5.44237132  T       0.00000000       0.00000000       0.00000000      -0.00028754       0.00247354      -0.02135841
Pd       5.52420552       5.50114197       5.44357630  T       0.00000000       0.00000000       0.00000000      -0.00156929      -0.00204050      -0.00548026
Pd       4.12729798       1.37554656       7.40892189  T       0.00000000       0.00000000       0.00000000       0.01369426      -0.00554759       0.00620952
Pd       2.76472425       5.50370473       5.43898682  T       0.00000000       0.00000000       0.00000000      -0.00649415      -0.00362837      -0.01054372
Pd       9.63603163       6.87033155       7.45582850  T       0.00000000       0.00000000       0.00000000      -0.01020488      -0.00484699       0.00656444
Pd       4.12603597       9.62309623       7.41331317  T       0.00000000       0.00000000       0.00000000       0.01135084       0.01248155      -0.00543886
Pd       2.76857956       8.25390604       9.41618548  T       0.00000000       0.00000000       0.00000000      -0.00567365       0.01517112      -0.00187998
Pd       0.02125219       8.29501234       9.40625816  T       0.00000000       0.00000000       0.00000000      -0.00339262       0.01011944      -0.00293513
Pd       8.24490565       5.49218904       9.65051055  T       0.00000000       0.00000000       0.00000000       0.00454661       0.01609197       0.00064664
Pd       5.49625627       5.48977572       9.48674410  T       0.00000000       0.00000000       0.00000000      -0.01815107       0.01060775      -0.04300383
Pd       2.81729602       5.50073915       9.41697928  T       0.00000000       0.00000000       0.00000000      -0.03813645       0.00817458      -0.00128886
Pd       0.11946759       5.52040863       9.44646357  T       0.00000000       0.00000000       0.00000000       0.00331150      -0.01242595      -0.00769164
Pd       8.26616017       2.70087999       9.41375505  T       0.00000000       0.00000000       0.00000000      -0.00141778      -0.00346551      -0.00817623
Pd       1.38424219       9.63269379       7.41114628  T       0.00000000       0.00000000       0.00000000      -0.00768691       0.00657217       0.01093348
Pd       5.51272378       2.71234524       9.41171745  T       0.00000000       0.00000000       0.00000000      -0.00777515       0.00437767      -0.01236993
Pd       0.02252435       2.74144146       9.39857560  T       0.00000000       0.00000000       0.00000000      -0.00458110      -0.01788773       0.01419422
Pd       8.25584056       0.00410739       9.39365931  T       0.00000000       0.00000000       0.00000000       0.00523333      -0.01163286       0.00120715
Pd       5.50370473      -0.00611894       9.39804065  T       0.00000000       0.00000000       0.00000000       0.00350959       0.00608587       0.00960886
Pd       2.75239044       0.00444508       9.40964965  T       0.00000000       0.00000000       0.00000000      -0.00196585      -0.00629462      -0.01078876
Pd      -0.00006106       0.01713072       9.39820519  T       0.00000000       0.00000000       0.00000000      -0.00075045      -0.01540654      -0.00499953
Pd       9.63612723       9.63099556       7.40287702  T       0.00000000       0.00000000       0.00000000       0.00934992       0.00671843       0.01671229
Pd       6.87969158       9.61977608       7.40444997  T       0.00000000       0.00000000       0.00000000       0.00662669       0.00482556       0.01415947
Pd       2.76754225       2.75320098       9.41092915  T       0.00000000       0.00000000       0.00000000      -0.00046109      -0.01185604      -0.00195202
Pd       0.00377115       5.50651691       5.44199586  T       0.00000000       0.00000000       0.00000000      -0.00674202       0.00412350      -0.00405291
Pd       8.26088852       2.76277290       5.43397865  T       0.00000000       0.00000000       0.00000000      -0.00406853      -0.00705703      -0.02636000
Pd       5.50884401       2.75829539       5.43078762  T       0.00000000       0.00000000       0.00000000      -0.00129093      -0.00768631      -0.00245854
Pd       1.37558630       1.37558630       3.44537281  F       0.00000000       0.00000000       0.00000000      -0.00076005       0.00888683       0.21565075
Pd       8.25351783       8.25351783       1.50000000  F       0.00000000       0.00000000       0.00000000      -0.00108479       0.00077930      -0.22663538
Pd       5.50234522       8.25351783       1.50000000  F       0.00000000       0.00000000       0.00000000      -0.00122131       0.00090476      -0.22624761
Pd       2.75117261       8.25351783       1.50000000  F       0.00000000       0.00000000       0.00000000      -0.00166092       0.00249731      -0.22874555
Pd       0.00000000       8.25351783       1.50000000  F       0.00000000       0.00000000       0.00000000      -0.00157954       0.00129889      -0.22782588
Pd       8.25351783       5.50234522       1.50000000  F       0.00000000       0.00000000       0.00000000      -0.00171310      -0.00016445      -0.21874392
Pd       5.50234522       5.50234522       1.50000000  F       0.00000000       0.00000000       0.00000000      -0.00207137      -0.00005112      -0.22079002
Pd       4.12675891       1.37558630       3.44537281  F       0.00000000       0.00000000       0.00000000       0.01674075      -0.00241766       0.22257805
Pd       2.75117261       5.50234522       1.50000000  F       0.00000000       0.00000000       0.00000000      -0.00134983      -0.00043907      -0.22421273
Pd       8.25351783       2.75117261       1.50000000  F       0.00000000       0.00000000       0.00000000      -0.00079499      -0.00120906      -0.22713954
Pd       5.50234522       2.75117261       1.50000000  F       0.00000000       0.00000000       0.00000000      -0.00141778      -0.00089886      -0.22606704
Pd       2.75117261       2.75117261       1.50000000  F       0.00000000       0.00000000       0.00000000      -0.00147958      -0.00285293      -0.22953241
Pd       0.00000000       2.75117261       1.50000000  F       0.00000000       0.00000000       0.00000000      -0.00176644      -0.00188217      -0.22860414
Pd       8.25351783       0.00000000       1.50000000  F       0.00000000       0.00000000       0.00000000      -0.00100384      -0.00027415      -0.22847706
Pd       5.50234522       0.00000000       1.50000000  F       0.00000000       0.00000000       0.00000000      -0.00219700       0.00027714      -0.22725738
Pd       2.75117261       0.00000000       1.50000000  F       0.00000000       0.00000000       0.00000000      -0.00107506      -0.00003871      -0.22737885
Pd       0.00000000       5.50234522       1.50000000  F       0.00000000       0.00000000       0.00000000      -0.00081319      -0.00019563      -0.22238290
Pd       6.87793152       1.37558630       3.44537281  F       0.00000000       0.00000000       0.00000000       0.00799440       0.00792059       0.24379135
Pd       9.62910413       1.37558630       3.44537281  F       0.00000000       0.00000000       0.00000000       0.00432824       0.02027101       0.24396988
Pd       1.37558630       4.12675891       3.44537281  F       0.00000000       0.00000000       0.00000000       0.01379929       0.03063413       0.24176559
Pd       2.75495031       2.75631501       5.42720702  T       0.00000000       0.00000000       0.00000000       0.00239511      -0.01605863      -0.01098646
Pd       0.00808133       2.76421681       5.43344998  T       0.00000000       0.00000000       0.00000000      -0.00711318      -0.01035892      -0.01857604
Pd       8.25567391      -0.00020023       5.42889126  T       0.00000000       0.00000000       0.00000000      -0.00113502       0.01047903      -0.02204929
Pd       5.50427729      -0.00342099       5.43085597  T       0.00000000       0.00000000       0.00000000      -0.01305816       0.00909894      -0.01894942
Pd       2.75251954       0.00067447       5.42912592  T       0.00000000       0.00000000       0.00000000       0.00616973       0.00353024      -0.00164153
Pd       0.00336908       0.00402955       5.42732681  T       0.00000000       0.00000000       0.00000000      -0.00717571       0.00324133      -0.00137120
Pd       9.62910413       9.62910413       3.44537281  F       0.00000000       0.00000000       0.00000000       0.00395629      -0.01020047       0.24247718
Pd       6.87793152       9.62910413       3.44537281  F       0.00000000       0.00000000       0.00000000       0.00824611      -0.01606472       0.24528575
Pd       4.12675891       9.62910413       3.44537281  F       0.00000000       0.00000000       0.00000000       0.01658246      -0.00438849       0.22563831
Pd       1.37558630       9.62910413       3.44537281  F       0.00000000       0.00000000       0.00000000      -0.00016426       0.00257259       0.21509412
Pd       9.62910413       6.87793152       3.44537281  F       0.00000000       0.00000000       0.00000000       0.01679508      -0.00758168       0.22885301
Pd       6.87793152       6.87793152       3.44537281  F       0.00000000       0.00000000       0.00000000       0.01717833      -0.01488002       0.23632543
Pd       4.12675891       6.87793152       3.44537281  F       0.00000000       0.00000000       0.00000000       0.02555140      -0.02108498       0.25110770
Pd       1.37558630       6.87793152       3.44537281  F       0.00000000       0.00000000       0.00000000       0.01529175      -0.01901518       0.24459350
Pd       9.62910413       4.12675891       3.44537281  F       0.00000000       0.00000000       0.00000000       0.01835025       0.01596639       0.23159632
Pd       6.87793152       4.12675891       3.44537281  F       0.00000000       0.00000000       0.00000000       0.01809879       0.01539391       0.23179245
Pd       4.12675891       4.12675891       3.44537281  F       0.00000000       0.00000000       0.00000000       0.02340546       0.02383529       0.24576209
Pd       5.51278406       8.27647886       9.41020807  T       0.00000000       0.00000000       0.00000000      -0.00458229      -0.00819817      -0.00443244
Pd       8.26258875       8.30346153       9.40971039  T       0.00000000       0.00000000       0.00000000      -0.00417243      -0.00701575      -0.01699030
C        6.75712922       5.35692021      10.96460881  T       0.00000000       0.00000000       0.00000000      -0.02233762       0.01196768       0.03112001
O        6.69701629       5.25971931      12.14760025  T       0.00000000       0.00000000       0.00000000       0.00103165       0.01191568      -0.03395233
O        9.87417292       5.51142363      11.07758472  T       0.00000000       0.00000000       0.00000000      -0.01714086      -0.02315553       0.00933660
C        9.94879879       6.59554826      12.00335184  T       0.00000000       0.00000000       0.00000000      -0.01037981       0.00938094       0.01185339
H        9.06599655       6.55518038      12.66520420  T       0.00000000       0.00000000       0.00000000      -0.00714516       0.01835928       0.01220967
H       10.87264715       6.49708618      12.60114744  T       0.00000000       0.00000000       0.00000000       0.02775441      -0.01868086       0.01441013
H        9.96493470       7.59100736      11.48706986  T       0.00000000       0.00000000       0.00000000      -0.00168645      -0.00446267      -0.00215004
