87
Lattice="11.004690437655821 0.0 0.0 0.0 11.004690437655821 0.0 0.0 0.0 27.781491233325184" Properties=species:S:1:pos:R:3:move_mask:L:1:momenta:R:3:forces:R:3 idx=5272 E_MACE=-430.5407795781781 d_min=2.1087556231581206 d_reactive=5.530721700851439 rank=6334 dE_rel_meV=1528.8839561274017 converged=F energy=-430.5407795781781 stress="0.007898476950726971 -5.340968661779054e-05 -0.00024486934349861095 -5.340968661779054e-05 0.007993721761762322 0.0004413013782683699 -0.00024486934349861095 0.0004413013782683699 -0.0012105463092977817" pbc="T T T"
Pd       0.00000000       0.00000000       1.50000000  F       0.00000000       0.00000000       0.00000000      -0.00125662      -0.00072597      -0.22527091
Pd       4.09673792       6.87619901       7.41099730  T       0.00000000       0.00000000       0.00000000      -0.01661803       0.02980915      -0.00903006
Pd       1.33033490       6.93156103       7.45251912  T       0.00000000       0.00000000       0.00000000       0.01049119      -0.00004666       0.00565751
Pd       9.62382990       4.16279658       7.41022918  T       0.00000000       0.00000000       0.00000000      -0.02633661      -0.01116038       0.02393711
Pd       6.86376634       4.11880069       7.41627926  T       0.00000000       0.00000000       0.00000000       0.03407799       0.03640122       0.01679663
Pd       4.13070830       4.11998005       7.40974483  T       0.00000000       0.00000000       0.00000000      -0.02600817      -0.00000650       0.09078910
Pd       1.36935839       4.16087886       7.40900793  T       0.00000000       0.00000000       0.00000000       0.03365128       0.01176469       0.02216185
Pd       9.66364456       1.39143174       7.41657562  T       0.00000000       0.00000000       0.00000000      -0.02180409       0.04158618      -0.00480340
Pd       6.85988701       6.87578517       7.41663998  T       0.00000000       0.00000000       0.00000000       0.04786614       0.01056566      -0.01012149
Pd       6.89190568       1.38352884       7.42908082  T       0.00000000       0.00000000       0.00000000       0.02847115      -0.05447109      -0.12591241
Pd       1.38643540       1.39081449       7.43436642  T       0.00000000       0.00000000       0.00000000      -0.02812266      -0.02084269       0.07586612
Pd       8.25224933       8.25666688       5.43360882  T       0.00000000       0.00000000       0.00000000       0.00494953      -0.01767141      -0.02747055
Pd       5.49525506       8.25261139       5.43307168  T       0.00000000       0.00000000       0.00000000      -0.00788503      -0.00726870      -0.02738264
Pd       2.73624310       8.26259341       5.43961399  T       0.00000000       0.00000000       0.00000000       0.01404710      -0.03242676      -0.03301687
Pd      -0.00686414       8.27498131       5.43543352  T       0.00000000       0.00000000       0.00000000       0.00259702      -0.01363555      -0.03149573
Pd       8.24427438       5.51068874       5.43544806  T       0.00000000       0.00000000       0.00000000       0.01618237      -0.00781533      -0.01856226
Pd       5.49218220       5.50029322       5.43549784  T       0.00000000       0.00000000       0.00000000       0.01694186       0.01551624      -0.05517862
Pd       4.15857941       1.37964340       7.42724982  T       0.00000000       0.00000000       0.00000000      -0.08112305       0.00688817      -0.04122456
Pd       2.74082794       5.51076186       5.43572085  T       0.00000000       0.00000000       0.00000000      -0.03417032       0.02003958      -0.02429929
Pd       9.61633895       6.92384551       7.45129836  T       0.00000000       0.00000000       0.00000000       0.00260850      -0.01792197      -0.03708477
Pd       4.13137003       9.63814674       7.41152099  T       0.00000000       0.00000000       0.00000000       0.03473211      -0.00896871       0.04877604
Pd       2.73715937       8.25745916       9.40673095  T       0.00000000       0.00000000       0.00000000       0.07964906       0.00891608       0.02166246
Pd      -0.01949454       8.32498335       9.52500890  T       0.00000000       0.00000000       0.00000000      -0.05646028      -0.09152887       0.00751361
Pd       8.22578486       5.49844343       9.40788289  T       0.00000000       0.00000000       0.00000000       0.02040201      -0.00257677       0.01780142
Pd       5.48166565       5.52620387       9.39636343  T       0.00000000       0.00000000       0.00000000      -0.01763958      -0.09974913       0.04774025
Pd       2.73202844       5.50160797       9.40187353  T       0.00000000       0.00000000       0.00000000       0.01460054       0.00736968       0.02064100
Pd      -0.02303779       5.57215807       9.41544573  T       0.00000000       0.00000000       0.00000000       0.00650774      -0.05482016       0.03065883
Pd       8.27600860       2.75088209       9.38935189  T       0.00000000       0.00000000       0.00000000       0.00717674       0.08336069       0.06944765
Pd       1.36986621       9.66122077       7.43230331  T       0.00000000       0.00000000       0.00000000       0.02247498       0.00686636       0.01352900
Pd       5.50709359       2.75930546       9.45472668  T       0.00000000       0.00000000       0.00000000       0.07769215      -0.08394085       0.33657851
Pd       0.00847665       2.85166262       9.40260489  T       0.00000000       0.00000000       0.00000000      -0.00165483      -0.00949968       0.01492246
Pd       8.28849623       0.01465833       9.37481757  T       0.00000000       0.00000000       0.00000000      -0.09952200       0.02129158      -0.00207543
Pd       5.55281852       0.00452285       9.43457380  T       0.00000000       0.00000000       0.00000000      -0.02960103      -0.00960770       0.19632164
Pd       2.81076079       0.01091367       9.40096688  T       0.00000000       0.00000000       0.00000000      -0.04046706      -0.00072118       0.02469893
Pd       0.03414623       0.14684878       9.48097621  T       0.00000000       0.00000000       0.00000000      -0.05928585      -0.07932882       0.07339751
Pd       9.64557507       9.64679518       7.42488909  T       0.00000000       0.00000000       0.00000000      -0.02271285       0.01267606       0.02389511
Pd       6.88620332       9.62309729       7.40877618  T       0.00000000       0.00000000       0.00000000      -0.05137263       0.06213720       0.04934936
Pd       2.74886225       2.75821315       9.39788102  T       0.00000000       0.00000000       0.00000000       0.01204177       0.03099335       0.03015565
Pd      -0.01151032       5.53111252       5.43964321  T       0.00000000       0.00000000       0.00000000       0.02691576      -0.00834240      -0.01435787
Pd       8.26174041       2.75203035       5.43416210  T       0.00000000       0.00000000       0.00000000      -0.03755643       0.02910634      -0.02134901
Pd       5.50558998       2.74792636       5.42446875  T       0.00000000       0.00000000       0.00000000       0.02703087      -0.02388485       0.01317527
Pd       1.37558630       1.37558630       3.44537281  F       0.00000000       0.00000000       0.00000000       0.02611019       0.03747352       0.23276707
Pd       8.25351783       8.25351783       1.50000000  F       0.00000000       0.00000000       0.00000000      -0.00006519      -0.00023680      -0.22659435
Pd       5.50234522       8.25351783       1.50000000  F       0.00000000       0.00000000       0.00000000       0.00111839      -0.00072376      -0.22891594
Pd       2.75117261       8.25351783       1.50000000  F       0.00000000       0.00000000       0.00000000       0.00012552       0.00001973      -0.22705535
Pd       0.00000000       8.25351783       1.50000000  F       0.00000000       0.00000000       0.00000000      -0.00080599      -0.00118618      -0.22545326
Pd       8.25351783       5.50234522       1.50000000  F       0.00000000       0.00000000       0.00000000      -0.00057606      -0.00168049      -0.22744466
Pd       5.50234522       5.50234522       1.50000000  F       0.00000000       0.00000000       0.00000000       0.00129499      -0.00146393      -0.22864182
Pd       4.12675891       1.37558630       3.44537281  F       0.00000000       0.00000000       0.00000000      -0.00362360      -0.00527831       0.22528170
Pd       2.75117261       5.50234522       1.50000000  F       0.00000000       0.00000000       0.00000000       0.00201308      -0.00234606      -0.22708711
Pd       8.25351783       2.75117261       1.50000000  F       0.00000000       0.00000000       0.00000000      -0.00193724      -0.00303434      -0.22783497
Pd       5.50234522       2.75117261       1.50000000  F       0.00000000       0.00000000       0.00000000      -0.00038537       0.00016189      -0.22746855
Pd       2.75117261       2.75117261       1.50000000  F       0.00000000       0.00000000       0.00000000       0.00072950      -0.00345996      -0.22750684
Pd       0.00000000       2.75117261       1.50000000  F       0.00000000       0.00000000       0.00000000      -0.00102489      -0.00295270      -0.22833060
Pd       8.25351783       0.00000000       1.50000000  F       0.00000000       0.00000000       0.00000000      -0.00155086      -0.00142960      -0.22760013
Pd       5.50234522       0.00000000       1.50000000  F       0.00000000       0.00000000       0.00000000       0.00037879      -0.00002103      -0.22820004
Pd       2.75117261       0.00000000       1.50000000  F       0.00000000       0.00000000       0.00000000       0.00106143      -0.00120169      -0.22692443
Pd       0.00000000       5.50234522       1.50000000  F       0.00000000       0.00000000       0.00000000       0.00007215      -0.00139012      -0.22766630
Pd       6.87793152       1.37558630       3.44537281  F       0.00000000       0.00000000       0.00000000       0.03727131      -0.00446761       0.23177347
Pd       9.62910413       1.37558630       3.44537281  F       0.00000000       0.00000000       0.00000000       0.02313086       0.03185757       0.23848696
Pd       1.37558630       4.12675891       3.44537281  F       0.00000000       0.00000000       0.00000000      -0.01235844       0.03436847       0.26471466
Pd       2.75556797       2.75580195       5.43465682  T       0.00000000       0.00000000       0.00000000      -0.00089235      -0.00101077      -0.02519566
Pd       0.00758530       2.76754794       5.43798128  T       0.00000000       0.00000000       0.00000000      -0.00078067       0.00625795      -0.04227200
Pd       8.27178914       0.00462262       5.43428948  T       0.00000000       0.00000000       0.00000000      -0.04995159       0.00224315      -0.01202529
Pd       5.51473717       0.00022038       5.42736232  T       0.00000000       0.00000000       0.00000000      -0.00224600       0.02075842       0.01818860
Pd       2.75792482       0.01000542       5.43809877  T       0.00000000       0.00000000       0.00000000       0.01787333      -0.00026775      -0.03628958
Pd       0.01565475       0.01550152       5.43042115  T       0.00000000       0.00000000       0.00000000      -0.01890811      -0.01971055      -0.02548918
Pd       9.62910413       9.62910413       3.44537281  F       0.00000000       0.00000000       0.00000000       0.00175396       0.01808322       0.21561009
Pd       6.87793152       9.62910413       3.44537281  F       0.00000000       0.00000000       0.00000000       0.01492859      -0.00216380       0.24435254
Pd       4.12675891       9.62910413       3.44537281  F       0.00000000       0.00000000       0.00000000      -0.01310925      -0.00142220       0.25386955
Pd       1.37558630       9.62910413       3.44537281  F       0.00000000       0.00000000       0.00000000       0.02094483       0.01960285       0.22469466
Pd       9.62910413       6.87793152       3.44537281  F       0.00000000       0.00000000       0.00000000      -0.01489259       0.01674634       0.23129316
Pd       6.87793152       6.87793152       3.44537281  F       0.00000000       0.00000000       0.00000000      -0.01784420       0.00052582       0.25238094
Pd       4.12675891       6.87793152       3.44537281  F       0.00000000       0.00000000       0.00000000      -0.02975470       0.00989301       0.26146570
Pd       1.37558630       6.87793152       3.44537281  F       0.00000000       0.00000000       0.00000000      -0.01577705       0.02150289       0.24642942
Pd       9.62910413       4.12675891       3.44537281  F       0.00000000       0.00000000       0.00000000       0.00364786       0.02897568       0.26663380
Pd       6.87793152       4.12675891       3.44537281  F       0.00000000       0.00000000       0.00000000       0.00380376       0.00849296       0.23641485
Pd       4.12675891       4.12675891       3.44537281  F       0.00000000       0.00000000       0.00000000      -0.01183049       0.01491795       0.21998504
Pd       5.46442175       8.24398710       9.40059725  T       0.00000000       0.00000000       0.00000000       0.05612362       0.09342424       0.00594012
Pd       8.20866843       8.25211153       9.42948976  T       0.00000000       0.00000000       0.00000000      -0.03253184      -0.01572580      -0.04478888
C        5.99030900       1.51603506      11.84378029  T       0.00000000       0.00000000       0.00000000      -0.68215550       0.12240878       0.36753553
O        5.44064145       1.56566835      12.87284881  T       0.00000000       0.00000000       0.00000000       0.53374986      -0.05473157      -1.00713356
O       10.75519606       9.81628692      11.08830305  T       0.00000000       0.00000000       0.00000000       0.53637300      -0.12393324      -0.25082127
C        9.61915504       9.80063080      11.92329872  T       0.00000000       0.00000000       0.00000000      -0.04885022       0.48265851       0.36514074
H        9.91925368       9.51094190      12.94885940  T       0.00000000       0.00000000       0.00000000       0.09244487      -0.22675046      -0.06293553
H        9.14715022      10.79948715      12.01728245  T       0.00000000       0.00000000       0.00000000       0.02850234       0.14052190      -0.16380007
H        8.83976253       9.11537773      11.55120491  T       0.00000000       0.00000000       0.00000000      -0.32311074      -0.41263221      -0.08632041
