87
Lattice="11.004690437655821 0.0 0.0 0.0 11.004690437655821 0.0 0.0 0.0 27.781491233325184" Properties=species:S:1:pos:R:3:move_mask:L:1:momenta:R:3:forces:R:3 idx=431 E_MACE=-430.4093068567859 d_min=2.1006074711012936 d_reactive=5.1924269031266865 rank=6337 dE_rel_meV=1660.3566775195873 converged=F energy=-430.4093068567859 stress="0.00861619979083011 -1.4373359809813806e-05 -0.00017938196660579703 -1.4373359809813806e-05 0.008480917391933514 0.0003368801768415569 -0.00017938196660579703 0.0003368801768415569 -0.0009952768687847436" pbc="T T T"
Pd       0.00000000       0.00000000       1.50000000  F       0.00000000       0.00000000       0.00000000      -0.00051207      -0.00056669      -0.22679310
Pd       4.08468745       6.91274367       7.47003500  T       0.00000000       0.00000000       0.00000000       0.01139965      -0.00553376       0.00662956
Pd       1.36806520       6.90819380       7.45615387  T       0.00000000       0.00000000       0.00000000       0.00507628      -0.02166957      -0.02053136
Pd       9.61652106       4.12166308       7.43291881  T       0.00000000       0.00000000       0.00000000       0.00381285       0.03595388      -0.00349067
Pd       6.87659510       4.12009144       7.43549647  T       0.00000000       0.00000000       0.00000000       0.00306666       0.01629180      -0.00069203
Pd       4.12353291       4.14887094       7.42914226  T       0.00000000       0.00000000       0.00000000       0.00799776       0.02267031      -0.00432446
Pd       1.36824754       4.15126835       7.42469707  T       0.00000000       0.00000000       0.00000000       0.00079197      -0.00242981       0.00459965
Pd       9.64623054       1.39178805       7.40951365  T       0.00000000       0.00000000       0.00000000      -0.12889013      -0.09257371       0.10515598
Pd       6.84196107       6.87332046       7.42488420  T       0.00000000       0.00000000       0.00000000       0.02570457      -0.01025515       0.00586282
Pd       6.88895758       1.38618710       7.42245496  T       0.00000000       0.00000000       0.00000000       0.05461422      -0.08490216       0.09183259
Pd       1.39511264       1.39042197       7.42162864  T       0.00000000       0.00000000       0.00000000       0.01974482       0.03005306       0.01252952
Pd       8.24080150       8.24406745       5.42921442  T       0.00000000       0.00000000       0.00000000       0.00183698       0.03956946       0.01764811
Pd       5.48198996       8.24871912       5.43594572  T       0.00000000       0.00000000       0.00000000       0.03441619       0.02131173       0.00517792
Pd       2.74255581       8.26088827       5.43837253  T       0.00000000       0.00000000       0.00000000      -0.00169146       0.01263412      -0.02046798
Pd      -0.00142434       8.24914770       5.43306053  T       0.00000000       0.00000000       0.00000000      -0.00460804       0.02880495       0.01140094
Pd       8.24332087       5.49952769       5.43542791  T       0.00000000       0.00000000       0.00000000       0.00329925      -0.00387268       0.01969125
Pd       5.48988912       5.50795195       5.43887646  T       0.00000000       0.00000000       0.00000000      -0.00233025      -0.00887314       0.02238111
Pd       4.12931390       1.38357483       7.43916375  T       0.00000000       0.00000000       0.00000000      -0.00313499      -0.01351695       0.01879201
Pd       2.74489088       5.51989369       5.44447969  T       0.00000000       0.00000000       0.00000000       0.00457575      -0.00541004       0.00416775
Pd       9.60724096       6.87189333       7.42045909  T       0.00000000       0.00000000       0.00000000      -0.00731201      -0.03409370      -0.00285665
Pd       4.12067912       9.64021732       7.42844539  T       0.00000000       0.00000000       0.00000000       0.01306105       0.02005743       0.04909178
Pd       2.71733443       8.27786042       9.53617363  T       0.00000000       0.00000000       0.00000000      -0.07536231       0.06239325       0.02764164
Pd      -0.07133469       8.22857683       9.40777904  T       0.00000000       0.00000000       0.00000000       0.03812095       0.06846066      -0.00983746
Pd       8.23435051       5.49408508       9.42414755  T       0.00000000       0.00000000       0.00000000       0.01550580       0.02001402      -0.00836790
Pd       5.49118353       5.50464016       9.43790061  T       0.00000000       0.00000000       0.00000000      -0.01346788      -0.00139438      -0.03286892
Pd       2.73350423       5.53240571       9.44607878  T       0.00000000       0.00000000       0.00000000       0.00620456       0.00015501      -0.04388872
Pd      -0.01918582       5.50238281       9.43346554  T       0.00000000       0.00000000       0.00000000      -0.00960460      -0.02474239      -0.03308425
Pd       8.25869637       2.73596870       9.47395876  T       0.00000000       0.00000000       0.00000000       0.01556838      -0.00912550      -0.01634973
Pd       1.37859433       9.64267532       7.43230323  T       0.00000000       0.00000000       0.00000000       0.00731314       0.00195196       0.05882655
Pd       5.49513606       2.75885632       9.42522282  T       0.00000000       0.00000000       0.00000000       0.03291323      -0.00918232      -0.00595947
Pd       0.00923033       2.77080459       9.42225376  T       0.00000000       0.00000000       0.00000000      -0.00388923       0.01260941      -0.01142909
Pd       8.28829937       0.00390776       9.48007075  T       0.00000000       0.00000000       0.00000000      -0.06874881      -0.00339599      -0.10417012
Pd       5.56199466       0.00917878       9.42092061  T       0.00000000       0.00000000       0.00000000       0.01720066       0.00524946      -0.05099150
Pd       2.81975324       0.12225183       9.44823088  T       0.00000000       0.00000000       0.00000000      -0.10779264      -0.10409996       0.06379065
Pd      -0.01813355       0.03246123       9.38530153  T       0.00000000       0.00000000       0.00000000       0.06726596      -0.03996788      -0.04983659
Pd       9.62460957       9.62220790       7.40780471  T       0.00000000       0.00000000       0.00000000      -0.08531705       0.08341355       0.06980941
Pd       6.87381979       9.62793507       7.41677947  T       0.00000000       0.00000000       0.00000000       0.04952206       0.06888851       0.06472897
Pd       2.74843096       2.82337899       9.41965476  T       0.00000000       0.00000000       0.00000000       0.00235776       0.00199720      -0.00500382
Pd      -0.00466023       5.50937643       5.43821505  T       0.00000000       0.00000000       0.00000000      -0.00028866      -0.01528857       0.00366230
Pd       8.25487359       2.75438665       5.43078646  T       0.00000000       0.00000000       0.00000000      -0.00876258      -0.01586074       0.00397557
Pd       5.50556671       2.75934022       5.43216551  T       0.00000000       0.00000000       0.00000000      -0.01083583      -0.00769757       0.02294272
Pd       1.37558630       1.37558630       3.44537281  F       0.00000000       0.00000000       0.00000000       0.01504033       0.02059881       0.25119546
Pd       8.25351783       8.25351783       1.50000000  F       0.00000000       0.00000000       0.00000000       0.00139435       0.00225174      -0.22778855
Pd       5.50234522       8.25351783       1.50000000  F       0.00000000       0.00000000       0.00000000       0.00069281       0.00159847      -0.22762351
Pd       2.75117261       8.25351783       1.50000000  F       0.00000000       0.00000000       0.00000000       0.00006133       0.00017905      -0.22455105
Pd       0.00000000       8.25351783       1.50000000  F       0.00000000       0.00000000       0.00000000       0.00037492       0.00142784      -0.22733243
Pd       8.25351783       5.50234522       1.50000000  F       0.00000000       0.00000000       0.00000000       0.00178114      -0.00195028      -0.22602283
Pd       5.50234522       5.50234522       1.50000000  F       0.00000000       0.00000000       0.00000000       0.00228964      -0.00089504      -0.22620348
Pd       4.12675891       1.37558630       3.44537281  F       0.00000000       0.00000000       0.00000000       0.01035590       0.01959322       0.23733070
Pd       2.75117261       5.50234522       1.50000000  F       0.00000000       0.00000000       0.00000000       0.00042191       0.00007249      -0.22426217
Pd       8.25351783       2.75117261       1.50000000  F       0.00000000       0.00000000       0.00000000       0.00011017      -0.00252307      -0.22682797
Pd       5.50234522       2.75117261       1.50000000  F       0.00000000       0.00000000       0.00000000       0.00140925      -0.00270300      -0.22873293
Pd       2.75117261       2.75117261       1.50000000  F       0.00000000       0.00000000       0.00000000      -0.00033980      -0.00312457      -0.22763489
Pd       0.00000000       2.75117261       1.50000000  F       0.00000000       0.00000000       0.00000000      -0.00124810      -0.00326674      -0.22771067
Pd       8.25351783       0.00000000       1.50000000  F       0.00000000       0.00000000       0.00000000       0.00130236       0.00100719      -0.22652675
Pd       5.50234522       0.00000000       1.50000000  F       0.00000000       0.00000000       0.00000000       0.00098800      -0.00055090      -0.22686258
Pd       2.75117261       0.00000000       1.50000000  F       0.00000000       0.00000000       0.00000000      -0.00050302      -0.00073783      -0.22454873
Pd       0.00000000       5.50234522       1.50000000  F       0.00000000       0.00000000       0.00000000      -0.00036559      -0.00033920      -0.22676889
Pd       6.87793152       1.37558630       3.44537281  F       0.00000000       0.00000000       0.00000000       0.00381608       0.00088110       0.23527923
Pd       9.62910413       1.37558630       3.44537281  F       0.00000000       0.00000000       0.00000000       0.01284641      -0.00221181       0.24353638
Pd       1.37558630       4.12675891       3.44537281  F       0.00000000       0.00000000       0.00000000       0.00917063       0.02855721       0.26534041
Pd       2.75985020       2.76261070       5.43550007  T       0.00000000       0.00000000       0.00000000      -0.02508392      -0.00075727       0.01143585
Pd       0.00246903       2.76050870       5.43067949  T       0.00000000       0.00000000       0.00000000       0.02419528       0.00539117      -0.01293192
Pd       8.25723088       0.00033465       5.43282143  T       0.00000000       0.00000000       0.00000000      -0.00254703      -0.00147925      -0.00213105
Pd       5.50514959       0.00494712       5.43213854  T       0.00000000       0.00000000       0.00000000      -0.00524605       0.00039046       0.02134675
Pd       2.75833663       0.00496176       5.43284952  T       0.00000000       0.00000000       0.00000000      -0.00861050       0.00337398      -0.00117845
Pd       0.00778750       0.00336575       5.43278601  T       0.00000000       0.00000000       0.00000000       0.00505378      -0.01277598      -0.01952420
Pd       9.62910413       9.62910413       3.44537281  F       0.00000000       0.00000000       0.00000000      -0.00068108      -0.00525089       0.25758653
Pd       6.87793152       9.62910413       3.44537281  F       0.00000000       0.00000000       0.00000000      -0.01207917      -0.00808224       0.25413879
Pd       4.12675891       9.62910413       3.44537281  F       0.00000000       0.00000000       0.00000000       0.00055020       0.00301664       0.23461269
Pd       1.37558630       9.62910413       3.44537281  F       0.00000000       0.00000000       0.00000000      -0.00633209       0.00699946       0.23344202
Pd       9.62910413       6.87793152       3.44537281  F       0.00000000       0.00000000       0.00000000      -0.01128976      -0.00955541       0.24439522
Pd       6.87793152       6.87793152       3.44537281  F       0.00000000       0.00000000       0.00000000      -0.03639078      -0.01012897       0.24092488
Pd       4.12675891       6.87793152       3.44537281  F       0.00000000       0.00000000       0.00000000      -0.02932715      -0.00342771       0.22931725
Pd       1.37558630       6.87793152       3.44537281  F       0.00000000       0.00000000       0.00000000      -0.00359360      -0.00166478       0.23635222
Pd       9.62910413       4.12675891       3.44537281  F       0.00000000       0.00000000       0.00000000      -0.00609153       0.01846528       0.22750640
Pd       6.87793152       4.12675891       3.44537281  F       0.00000000       0.00000000       0.00000000      -0.00574813       0.01775241       0.21807880
Pd       4.12675891       4.12675891       3.44537281  F       0.00000000       0.00000000       0.00000000      -0.01114886       0.03221391       0.25270894
Pd       5.48751206       8.25887172       9.43286725  T       0.00000000       0.00000000       0.00000000       0.02426664       0.00727484      -0.03584097
Pd       8.20526090       8.24320968       9.41638087  T       0.00000000       0.00000000       0.00000000       0.04663337       0.04302859      -0.02857730
C       -1.94602388       1.29372193      12.06292869  T       0.00000000       0.00000000       0.00000000      -0.31958233      -0.09471271       0.03176080
O       -2.59877217       1.04214281      12.98646341  T       0.00000000       0.00000000       0.00000000       0.21161517       0.09262839      -0.36201923
O        2.53043258      -1.15203691      11.09292950  T       0.00000000       0.00000000       0.00000000       0.10307476      -0.06763205      -0.21968129
C        1.32871958      -0.95015912      11.80975386  T       0.00000000       0.00000000       0.00000000      -0.17706162      -0.11981119      -0.42442976
H        1.30907347      -1.62157255      12.67263751  T       0.00000000       0.00000000       0.00000000      -0.01277343      -0.28627014       0.30202878
H        1.22298753       0.08890042      12.13594112  T       0.00000000       0.00000000       0.00000000       0.09855273       0.36118602       0.17044746
H        0.38945131      -1.18281703      11.19306734  T       0.00000000       0.00000000       0.00000000       0.19122443      -0.06606434       0.06755102
