87
Lattice="11.004690437655821 0.0 0.0 0.0 11.004690437655821 0.0 0.0 0.0 27.781491233325184" Properties=species:S:1:pos:R:3:move_mask:L:1:momenta:R:3:forces:R:3 idx=3684 E_MACE=-430.4107684006885 d_min=2.087612708442976 d_reactive=5.330793087999911 rank=6336 dE_rel_meV=1658.8951336170226 converged=F energy=-430.4107684006885 stress="0.00837213987953577 1.2371330064325139e-05 -4.546978275039399e-05 1.2371330064325139e-05 0.0085222132813858 0.00045496416190943066 -4.546978275039399e-05 0.00045496416190943066 -0.0013535132670991733" pbc="T T T"
Pd       0.00000000       0.00000000       1.50000000  F       0.00000000       0.00000000       0.00000000       0.00161640      -0.00190004      -0.22683646
Pd       4.10564390       6.86761554       7.42277641  T       0.00000000       0.00000000       0.00000000       0.01775319       0.03273600      -0.01824779
Pd       1.34538588       6.87000931       7.42781561  T       0.00000000       0.00000000       0.00000000       0.00507261       0.02377002      -0.00644281
Pd       9.62718156       4.15299951       7.43268486  T       0.00000000       0.00000000       0.00000000       0.00061759      -0.01963254      -0.00656946
Pd       6.87200274       4.15408037       7.43008588  T       0.00000000       0.00000000       0.00000000      -0.00470315      -0.00596303      -0.02695035
Pd       4.11288443       4.12566054       7.43275868  T       0.00000000       0.00000000       0.00000000       0.02272627      -0.00640938      -0.02078598
Pd       1.37704534       4.11896809       7.44053960  T       0.00000000       0.00000000       0.00000000      -0.01299089       0.02242277      -0.03102462
Pd       9.62768575       1.38356529       7.44713480  T       0.00000000       0.00000000       0.00000000      -0.02937307      -0.00020638       0.01774224
Pd       6.87144182       6.90486431       7.45558351  T       0.00000000       0.00000000       0.00000000       0.00880632       0.03263411      -0.00757850
Pd       6.89716616       1.40070253       7.42547498  T       0.00000000       0.00000000       0.00000000      -0.01078324      -0.03262465       0.02505342
Pd       1.37890507       1.38355579       7.42242837  T       0.00000000       0.00000000       0.00000000       0.01641711      -0.03138497       0.03288767
Pd       8.24533306       8.26427768       5.43681786  T       0.00000000       0.00000000       0.00000000       0.01706831       0.00259156       0.02735382
Pd       5.50224668       8.25571558       5.43710339  T       0.00000000       0.00000000       0.00000000      -0.01811355      -0.01333310       0.01939480
Pd       2.73841489       8.24948546       5.42836362  T       0.00000000       0.00000000       0.00000000       0.01196608      -0.01025389       0.02731775
Pd      -0.01623797       8.25108198       5.43603794  T       0.00000000       0.00000000       0.00000000       0.00161906       0.00821493       0.03927959
Pd       8.24886733       5.51979530       5.44672532  T       0.00000000       0.00000000       0.00000000      -0.00007116       0.00523133      -0.00762271
Pd       5.49882826       5.50837358       5.43846002  T       0.00000000       0.00000000       0.00000000      -0.00076961       0.00662685      -0.00393553
Pd       4.12685337       1.38901334       7.41197862  T       0.00000000       0.00000000       0.00000000       0.00423365      -0.02891169       0.04421932
Pd       2.74206192       5.50030157       5.43834179  T       0.00000000       0.00000000       0.00000000      -0.01370296      -0.00616273      -0.01105643
Pd       9.58950433       6.91543536       7.47523993  T       0.00000000       0.00000000       0.00000000       0.00240951       0.01786697      -0.03712685
Pd       4.10766329       9.62761948       7.40644675  T       0.00000000       0.00000000       0.00000000       0.05083267       0.02080393       0.01074337
Pd       2.71546649       8.25077668       9.41138011  T       0.00000000       0.00000000       0.00000000       0.00986680      -0.01968529       0.00293741
Pd      -0.00844147       8.25928848       9.43041458  T       0.00000000       0.00000000       0.00000000       0.01271713      -0.00181718      -0.01236625
Pd       8.23706574       5.53505305       9.44165555  T       0.00000000       0.00000000       0.00000000      -0.00560785       0.01327812      -0.00501395
Pd       5.48270929       5.50183194       9.43153032  T       0.00000000       0.00000000       0.00000000      -0.00007359       0.03053634      -0.00692167
Pd       2.73533498       5.49368288       9.42930361  T       0.00000000       0.00000000       0.00000000      -0.00559077       0.02807150      -0.00404768
Pd      -0.01399812       5.50425752       9.43667079  T       0.00000000       0.00000000       0.00000000       0.01537643       0.00311945      -0.01171407
Pd       8.25210769       2.82818878       9.42704738  T       0.00000000       0.00000000       0.00000000       0.01118348      -0.02363456      -0.01319020
Pd       1.37093328       9.63161384       7.41830481  T       0.00000000       0.00000000       0.00000000      -0.03402202      -0.00552384      -0.02142502
Pd       5.50630778       2.77757422       9.42033894  T       0.00000000       0.00000000       0.00000000       0.01150416      -0.03310727      -0.00897353
Pd       0.00162126       2.75973496       9.42761182  T       0.00000000       0.00000000       0.00000000      -0.00693583      -0.00856210       0.00008326
Pd       8.29169524       0.11990695       9.46346128  T       0.00000000       0.00000000       0.00000000       0.02918316       0.01261461      -0.07305951
Pd       5.48225271       0.03315369       9.37284350  T       0.00000000       0.00000000       0.00000000      -0.00577130      -0.00161686       0.00288519
Pd       2.75934171      -0.00416916       9.43919583  T       0.00000000       0.00000000       0.00000000       0.02673294       0.02104750       0.01553159
Pd       0.05016508       0.01079741       9.41653961  T       0.00000000       0.00000000       0.00000000      -0.05017195       0.01142581       0.00371968
Pd       9.62262503       9.64095247       7.44166929  T       0.00000000       0.00000000       0.00000000      -0.01139169       0.01500273      -0.01956568
Pd       6.88187201       9.64256889       7.44213467  T       0.00000000       0.00000000       0.00000000      -0.01694750       0.01726969      -0.03840978
Pd       2.75809334       2.73271572       9.46775241  T       0.00000000       0.00000000       0.00000000       0.00348324      -0.00196029       0.00736570
Pd      -0.01399541       5.50699097       5.44374256  T       0.00000000       0.00000000       0.00000000       0.02351047       0.00307973      -0.00215482
Pd       8.25791800       2.76191014       5.43990631  T       0.00000000       0.00000000       0.00000000       0.01061229       0.01097471      -0.00384672
Pd       5.50791440       2.76054041       5.43300010  T       0.00000000       0.00000000       0.00000000      -0.02600950      -0.00203761      -0.00313344
Pd       1.37558630       1.37558630       3.44537281  F       0.00000000       0.00000000       0.00000000      -0.01231890       0.01166236       0.25062396
Pd       8.25351783       8.25351783       1.50000000  F       0.00000000       0.00000000       0.00000000      -0.00049757       0.00078777      -0.22407999
Pd       5.50234522       8.25351783       1.50000000  F       0.00000000       0.00000000       0.00000000       0.00001256       0.00132433      -0.22767533
Pd       2.75117261       8.25351783       1.50000000  F       0.00000000       0.00000000       0.00000000       0.00241224       0.00155657      -0.22952514
Pd       0.00000000       8.25351783       1.50000000  F       0.00000000       0.00000000       0.00000000       0.00106636       0.00132464      -0.22843312
Pd       8.25351783       5.50234522       1.50000000  F       0.00000000       0.00000000       0.00000000       0.00026737      -0.00038235      -0.22537107
Pd       5.50234522       5.50234522       1.50000000  F       0.00000000       0.00000000       0.00000000      -0.00030861       0.00036014      -0.22677074
Pd       4.12675891       1.37558630       3.44537281  F       0.00000000       0.00000000       0.00000000       0.01562453       0.00727352       0.24966682
Pd       2.75117261       5.50234522       1.50000000  F       0.00000000       0.00000000       0.00000000       0.00141921      -0.00099150      -0.22724031
Pd       8.25351783       2.75117261       1.50000000  F       0.00000000       0.00000000       0.00000000      -0.00036060      -0.00394286      -0.22651277
Pd       5.50234522       2.75117261       1.50000000  F       0.00000000       0.00000000       0.00000000      -0.00172879      -0.00381167      -0.22767226
Pd       2.75117261       2.75117261       1.50000000  F       0.00000000       0.00000000       0.00000000       0.00069329      -0.00181801      -0.22735512
Pd       0.00000000       2.75117261       1.50000000  F       0.00000000       0.00000000       0.00000000       0.00226802      -0.00284276      -0.22812220
Pd       8.25351783       0.00000000       1.50000000  F       0.00000000       0.00000000       0.00000000      -0.00071102      -0.00094827      -0.22509999
Pd       5.50234522       0.00000000       1.50000000  F       0.00000000       0.00000000       0.00000000      -0.00055228      -0.00163551      -0.22715387
Pd       2.75117261       0.00000000       1.50000000  F       0.00000000       0.00000000       0.00000000       0.00162151      -0.00049808      -0.22816558
Pd       0.00000000       5.50234522       1.50000000  F       0.00000000       0.00000000       0.00000000       0.00244873      -0.00003450      -0.22709525
Pd       6.87793152       1.37558630       3.44537281  F       0.00000000       0.00000000       0.00000000       0.01647713       0.02574252       0.24529005
Pd       9.62910413       1.37558630       3.44537281  F       0.00000000       0.00000000       0.00000000       0.00150633       0.02865850       0.24469142
Pd       1.37558630       4.12675891       3.44537281  F       0.00000000       0.00000000       0.00000000      -0.01240326       0.01202791       0.24875159
Pd       2.75097073       2.75250881       5.43439663  T       0.00000000       0.00000000       0.00000000      -0.01062528       0.01053097      -0.02231134
Pd      -0.00279094       2.75835354       5.43949871  T       0.00000000       0.00000000       0.00000000       0.01489198       0.00354515      -0.01511986
Pd       8.25719574       0.00608357       5.43608101  T       0.00000000       0.00000000       0.00000000       0.00502880      -0.00655257       0.01798597
Pd       5.51347763       0.00374945       5.43206697  T       0.00000000       0.00000000       0.00000000      -0.02694413       0.00491239       0.03492851
Pd       2.75279920       0.00230410       5.42958050  T       0.00000000       0.00000000       0.00000000      -0.01853374      -0.00218475      -0.01144247
Pd      -0.00589990       0.00618144       5.43370054  T       0.00000000       0.00000000       0.00000000       0.02090774      -0.01208495       0.02023072
Pd       9.62910413       9.62910413       3.44537281  F       0.00000000       0.00000000       0.00000000      -0.00226273       0.00684331       0.23467359
Pd       6.87793152       9.62910413       3.44537281  F       0.00000000       0.00000000       0.00000000      -0.00448143       0.00728874       0.22421256
Pd       4.12675891       9.62910413       3.44537281  F       0.00000000       0.00000000       0.00000000       0.00582626      -0.00333937       0.25388604
Pd       1.37558630       9.62910413       3.44537281  F       0.00000000       0.00000000       0.00000000      -0.02188631       0.00300940       0.24948516
Pd       9.62910413       6.87793152       3.44537281  F       0.00000000       0.00000000       0.00000000      -0.02293435      -0.00477116       0.24261786
Pd       6.87793152       6.87793152       3.44537281  F       0.00000000       0.00000000       0.00000000      -0.00712899       0.00037694       0.25084108
Pd       4.12675891       6.87793152       3.44537281  F       0.00000000       0.00000000       0.00000000      -0.00513803      -0.00394676       0.26196988
Pd       1.37558630       6.87793152       3.44537281  F       0.00000000       0.00000000       0.00000000      -0.03500794      -0.01890837       0.25613420
Pd       9.62910413       4.12675891       3.44537281  F       0.00000000       0.00000000       0.00000000      -0.01126556       0.02577596       0.27307105
Pd       6.87793152       4.12675891       3.44537281  F       0.00000000       0.00000000       0.00000000       0.01426214       0.03046033       0.26656219
Pd       4.12675891       4.12675891       3.44537281  F       0.00000000       0.00000000       0.00000000      -0.00977720       0.01355970       0.24481929
Pd       5.43565315       8.24573814       9.40696330  T       0.00000000       0.00000000       0.00000000       0.01140225      -0.00577663      -0.02513374
Pd       8.20485474       8.28309439       9.54479721  T       0.00000000       0.00000000       0.00000000       0.03235511      -0.04231869      -0.03456778
C        3.51690270       1.34535862      12.16886503  T       0.00000000       0.00000000       0.00000000       0.15341804       0.08297169      -0.48906814
O        2.84862424       1.11320406      13.07480741  T       0.00000000       0.00000000       0.00000000      -0.22842614      -0.06801881       0.23179854
O        8.08998345      -1.17275438      11.09025747  T       0.00000000       0.00000000       0.00000000       0.21113431      -0.13961753      -0.19724573
C        6.89391036      -0.98292626      11.81323205  T       0.00000000       0.00000000       0.00000000      -0.17351244       0.11332660       0.06416238
H        6.87138866      -1.65445817      12.68209495  T       0.00000000       0.00000000       0.00000000       0.10370231      -0.24341945       0.21679664
H        6.81292726       0.06389562      12.16876686  T       0.00000000       0.00000000       0.00000000      -0.07071523      -0.05957887      -0.08340752
H        5.97584198      -1.25464896      11.20009555  T       0.00000000       0.00000000       0.00000000      -0.00350494       0.14951270       0.05285483
