87
Lattice="11.004690437655821 0.0 0.0 0.0 11.004690437655821 0.0 0.0 0.0 27.781491233325184" Properties=species:S:1:pos:R:3:move_mask:L:1:momenta:R:3:forces:R:3 idx=3682 E_MACE=-430.71407695624896 d_min=2.0585358824025373 d_reactive=5.5830674371346065 rank=6333 dE_rel_meV=1355.5865780565455 converged=F energy=-430.71407695624896 stress="0.008844327568179607 0.00016787410847915647 -0.0003088562294165209 0.00016787410847915647 0.008299118013099844 9.448500708956536e-05 -0.0003088562294165209 9.448500708956536e-05 0.00090600056960961" pbc="T T T"
Pd       0.00000000       0.00000000       1.50000000  F       0.00000000       0.00000000       0.00000000      -0.00153158       0.00067741      -0.23163152
Pd       4.09522102       6.86986337       7.42610913  T       0.00000000       0.00000000       0.00000000      -0.05299836      -0.11936545       0.06411272
Pd       1.28993868       6.84804953       7.40468216  T       0.00000000       0.00000000       0.00000000       0.19330445       0.04203301      -0.00299461
Pd       9.63268194       4.19877246       7.39657649  T       0.00000000       0.00000000       0.00000000       0.01495509      -0.23568273       0.02108851
Pd       6.86131176       4.17363170       7.41103127  T       0.00000000       0.00000000       0.00000000       0.03127452      -0.15121583      -0.01689750
Pd       4.09499523       4.06248171       7.46453484  T       0.00000000       0.00000000       0.00000000       0.06854055       0.12094771      -0.03435134
Pd       1.39041810       4.09164015       7.44823030  T       0.00000000       0.00000000       0.00000000       0.00748181      -0.04348410       0.04629955
Pd       9.65766351       1.36760779       7.43137615  T       0.00000000       0.00000000       0.00000000       0.18385916       0.16220506       0.02064247
Pd       6.86142319       6.94358415       7.49892793  T       0.00000000       0.00000000       0.00000000      -0.18596934       0.02043578      -0.36674427
Pd       6.96168673       1.35462248       7.42813972  T       0.00000000       0.00000000       0.00000000      -0.21594820       0.23698993      -0.08079582
Pd       1.50567120       1.37284892       7.44776852  T       0.00000000       0.00000000       0.00000000      -0.48710518       0.03976896      -0.08814974
Pd       8.20865272       8.28765958       5.43395393  T       0.00000000       0.00000000       0.00000000       0.12747382      -0.12673478      -0.02420360
Pd       5.47524401       8.23867512       5.43444167  T       0.00000000       0.00000000       0.00000000       0.09244719       0.00841178       0.06313469
Pd       2.73628683       8.22594627       5.43710225  T       0.00000000       0.00000000       0.00000000      -0.01184696       0.09909932       0.01564596
Pd      -0.02737053       8.26123456       5.41715613  T       0.00000000       0.00000000       0.00000000      -0.02720931      -0.06906319       0.10905262
Pd       8.22270135       5.54091857       5.44248991  T       0.00000000       0.00000000       0.00000000       0.03805099       0.00268336      -0.01595013
Pd       5.46842172       5.49341798       5.45383082  T       0.00000000       0.00000000       0.00000000       0.13678540       0.06246068      -0.03426277
Pd       4.16367412       1.36057624       7.46314094  T       0.00000000       0.00000000       0.00000000       0.35009998      -0.04461237      -0.21462379
Pd       2.74309405       5.48133411       5.44512747  T       0.00000000       0.00000000       0.00000000      -0.05871688       0.01617005       0.03162863
Pd       9.54565135       6.93802959       7.46823373  T       0.00000000       0.00000000       0.00000000       0.21841792       0.19085817      -0.33587241
Pd       4.14534866       9.60549868       7.45781366  T       0.00000000       0.00000000       0.00000000      -0.00264991       0.05985974      -0.10325971
Pd       2.63352773       8.25004214       9.39855564  T       0.00000000       0.00000000       0.00000000       0.24723012      -0.05568449       0.01936730
Pd      -0.04707697       8.25414972       9.38064809  T       0.00000000       0.00000000       0.00000000       0.14028838      -0.01351935       0.07442660
Pd       8.23573179       5.65374329       9.39937088  T       0.00000000       0.00000000       0.00000000      -0.03601604      -0.33002143       0.30730435
Pd       5.48865761       5.46489810       9.39454080  T       0.00000000       0.00000000       0.00000000      -0.07050190      -0.01537024       0.12603775
Pd       2.73488105       5.49154840       9.39929240  T       0.00000000       0.00000000       0.00000000      -0.04936936      -0.00871033       0.05399633
Pd      -0.03274036       5.48229243       9.42011094  T       0.00000000       0.00000000       0.00000000       0.06561366       0.03943975       0.02790866
Pd       8.25784439       2.86337954       9.35726233  T       0.00000000       0.00000000       0.00000000       0.07001979       0.11755516       0.12535348
Pd       1.39817920       9.63264256       7.38819929  T       0.00000000       0.00000000       0.00000000       0.01572824      -0.04240088       0.00475099
Pd       5.55052199       2.71205613       9.42272576  T       0.00000000       0.00000000       0.00000000       0.00716645       0.12172348      -0.00499930
Pd      -0.01321025       2.72371069       9.36930965  T       0.00000000       0.00000000       0.00000000       0.03554227       0.04798144       0.08335139
Pd       8.38035390       0.16068493       9.56346266  T       0.00000000       0.00000000       0.00000000      -0.16637758       0.11444805      -0.10416402
Pd       5.63267322      -0.00986241       9.38494934  T       0.00000000       0.00000000       0.00000000      -0.14633883       0.00823679       0.04784189
Pd       2.90546135      -0.02127367       9.49479844  T       0.00000000       0.00000000       0.00000000      -0.15465252       0.01493496       0.47948465
Pd       0.13054409      -0.02975313       9.34974636  T       0.00000000       0.00000000       0.00000000      -0.08358047       0.07414085       0.14650510
Pd       9.61581795       9.67966777       7.38790609  T       0.00000000       0.00000000       0.00000000       0.13594375      -0.11176791       0.10706424
Pd       6.90331110       9.64122364       7.43975721  T       0.00000000       0.00000000       0.00000000      -0.03264063      -0.04302983      -0.03282844
Pd       2.77189630       2.67835822       9.64929358  T       0.00000000       0.00000000       0.00000000       0.25248424      -0.21059346       0.83587387
Pd      -0.01219615       5.50016854       5.41300299  T       0.00000000       0.00000000       0.00000000      -0.05204281       0.07783260       0.09592290
Pd       8.28328320       2.76711121       5.43942969  T       0.00000000       0.00000000       0.00000000      -0.08773095       0.06631690       0.05084824
Pd       5.52867679       2.74207445       5.44255640  T       0.00000000       0.00000000       0.00000000      -0.08294670      -0.03458633       0.03850370
Pd       1.37558630       1.37558630       3.44537281  F       0.00000000       0.00000000       0.00000000       0.10269837      -0.01668673       0.21973531
Pd       8.25351783       8.25351783       1.50000000  F       0.00000000       0.00000000       0.00000000       0.00395820      -0.00016166      -0.22796248
Pd       5.50234522       8.25351783       1.50000000  F       0.00000000       0.00000000       0.00000000       0.00304781       0.00228528      -0.22542170
Pd       2.75117261       8.25351783       1.50000000  F       0.00000000       0.00000000       0.00000000      -0.00474845       0.00135442      -0.22832531
Pd       0.00000000       8.25351783       1.50000000  F       0.00000000       0.00000000       0.00000000      -0.00536583       0.00258400      -0.23221334
Pd       8.25351783       5.50234522       1.50000000  F       0.00000000       0.00000000       0.00000000       0.00429229      -0.00010604      -0.22474611
Pd       5.50234522       5.50234522       1.50000000  F       0.00000000       0.00000000       0.00000000      -0.00046517       0.00054261      -0.22657635
Pd       4.12675891       1.37558630       3.44537281  F       0.00000000       0.00000000       0.00000000       0.09748087      -0.03687008       0.27767129
Pd       2.75117261       5.50234522       1.50000000  F       0.00000000       0.00000000       0.00000000      -0.00127725       0.00261437      -0.22565498
Pd       8.25351783       2.75117261       1.50000000  F       0.00000000       0.00000000       0.00000000       0.00377761      -0.00076863      -0.23070346
Pd       5.50234522       2.75117261       1.50000000  F       0.00000000       0.00000000       0.00000000      -0.00064740      -0.00409827      -0.22260644
Pd       2.75117261       2.75117261       1.50000000  F       0.00000000       0.00000000       0.00000000      -0.00953812       0.00238849      -0.21695528
Pd       0.00000000       2.75117261       1.50000000  F       0.00000000       0.00000000       0.00000000      -0.00534767      -0.00467059      -0.23294346
Pd       8.25351783       0.00000000       1.50000000  F       0.00000000       0.00000000       0.00000000       0.00289652      -0.00019941      -0.22476043
Pd       5.50234522       0.00000000       1.50000000  F       0.00000000       0.00000000       0.00000000       0.00029348      -0.00147456      -0.22623103
Pd       2.75117261       0.00000000       1.50000000  F       0.00000000       0.00000000       0.00000000      -0.00506314      -0.00043619      -0.22157371
Pd       0.00000000       5.50234522       1.50000000  F       0.00000000       0.00000000       0.00000000       0.00413272      -0.00329288      -0.22911892
Pd       6.87793152       1.37558630       3.44537281  F       0.00000000       0.00000000       0.00000000       0.00996477       0.04415387       0.24160717
Pd       9.62910413       1.37558630       3.44537281  F       0.00000000       0.00000000       0.00000000       0.07978230       0.07451093       0.16394175
Pd       1.37558630       4.12675891       3.44537281  F       0.00000000       0.00000000       0.00000000       0.04364591      -0.00247330       0.16707960
Pd       2.77491804       2.74455153       5.42717474  T       0.00000000       0.00000000       0.00000000       0.00152730      -0.05232111       0.01272746
Pd       0.02469375       2.75715913       5.42587044  T       0.00000000       0.00000000       0.00000000       0.01163071      -0.02751612       0.17077505
Pd       8.28340598       0.02114465       5.40424808  T       0.00000000       0.00000000       0.00000000      -0.04763151      -0.01474050       0.05761814
Pd       5.54212636      -0.01945652       5.45004545  T       0.00000000       0.00000000       0.00000000      -0.08107533       0.08458189      -0.04123489
Pd       2.80897703      -0.00928409       5.44530828  T       0.00000000       0.00000000       0.00000000      -0.10022564       0.00172314      -0.10754596
Pd       0.03835081       0.02230263       5.42263037  T       0.00000000       0.00000000       0.00000000       0.01185915      -0.03554713       0.08613089
Pd       9.62910413       9.62910413       3.44537281  F       0.00000000       0.00000000       0.00000000       0.02404802       0.00673243       0.18322717
Pd       6.87793152       9.62910413       3.44537281  F       0.00000000       0.00000000       0.00000000      -0.05869617       0.00140824       0.16735036
Pd       4.12675891       9.62910413       3.44537281  F       0.00000000       0.00000000       0.00000000       0.00948840      -0.01390709       0.25525205
Pd       1.37558630       9.62910413       3.44537281  F       0.00000000       0.00000000       0.00000000       0.06944960       0.00786134       0.27760137
Pd       9.62910413       6.87793152       3.44537281  F       0.00000000       0.00000000       0.00000000      -0.09774641       0.02936026       0.23437876
Pd       6.87793152       6.87793152       3.44537281  F       0.00000000       0.00000000       0.00000000      -0.06811602      -0.01689817       0.24527150
Pd       4.12675891       6.87793152       3.44537281  F       0.00000000       0.00000000       0.00000000      -0.03545870      -0.05335254       0.24901028
Pd       1.37558630       6.87793152       3.44537281  F       0.00000000       0.00000000       0.00000000      -0.01574537      -0.02021012       0.23622193
Pd       9.62910413       4.12675891       3.44537281  F       0.00000000       0.00000000       0.00000000      -0.04328319       0.03881394       0.24063446
Pd       6.87793152       4.12675891       3.44537281  F       0.00000000       0.00000000       0.00000000      -0.00838162       0.03145236       0.31930520
Pd       4.12675891       4.12675891       3.44537281  F       0.00000000       0.00000000       0.00000000       0.02843024      -0.01927113       0.23134536
Pd       5.42710860       8.20337105       9.46749681  T       0.00000000       0.00000000       0.00000000       0.01878621       0.12715028      -0.00684127
Pd       8.28434516       8.44528446       9.53670699  T       0.00000000       0.00000000       0.00000000      -0.26720988      -0.19494703       0.19767908
C        3.13250701       1.64372965      11.41683702  T       0.00000000       0.00000000       0.00000000      -1.91977023       0.44366207       2.56790723
O        2.77996329       1.65109538      12.59648386  T       0.00000000       0.00000000       0.00000000       1.49308880      -0.12836528      -4.24523296
O        8.04335241       9.99929807      11.22607016  T       0.00000000       0.00000000       0.00000000      -1.02323927      -0.74573034       0.23646849
C        6.77431955       9.86429567      11.99550120  T       0.00000000       0.00000000       0.00000000       1.02307590       0.02370512      -0.63817932
H        7.11244207       9.49620028      12.99300431  T       0.00000000       0.00000000       0.00000000      -0.43383337       0.03996618      -0.36490926
H        6.27278396      10.83013093      12.04219695  T       0.00000000       0.00000000       0.00000000       0.03003712       0.68572256       0.37508242
H        5.96099994       9.23014920      11.51816821  T       0.00000000       0.00000000       0.00000000       0.72893912      -0.34789709       0.08129673
