87
Lattice="11.004690437655821 0.0 0.0 0.0 11.004690437655821 0.0 0.0 0.0 27.781491233325184" Properties=species:S:1:pos:R:3:move_mask:L:1:momenta:R:3:forces:R:3 idx=182 E_MACE=-432.06927778023606 d_min=1.9716069802171359 d_reactive=4.285231123734647 rank=6 dE_rel_meV=0.38575406944119095 converged=T energy=-432.06927778023606 stress="0.007917883721781375 5.415593116381016e-06 0.0001637820177919675 5.415593116381016e-06 0.007552284494271662 5.5885461482264394e-05 0.0001637820177919675 5.5885461482264394e-05 -0.002027179869963626" pbc="T T T"
Pd       0.00000000       0.00000000       1.50000000  F       0.00000000       0.00000000       0.00000000      -0.00072826       0.00045133      -0.22570135
Pd       4.13753129       6.87695054       7.41497712  T       0.00000000       0.00000000       0.00000000      -0.00892372       0.00012158      -0.00948195
Pd       1.38469342       6.88128342       7.40701518  T       0.00000000       0.00000000       0.00000000       0.00099119      -0.01166771      -0.00717723
Pd       9.63281108       4.11557777       7.45406568  T       0.00000000       0.00000000       0.00000000       0.00276982      -0.00382952       0.00194563
Pd       6.89950919       4.12097841       7.44287366  T       0.00000000       0.00000000       0.00000000       0.00613288       0.00013716      -0.00326579
Pd       4.12976982       4.12394876       7.43543975  T       0.00000000       0.00000000       0.00000000      -0.00782685       0.00276010      -0.00236257
Pd       1.38142829       4.13194009       7.42331185  T       0.00000000       0.00000000       0.00000000      -0.00298944       0.00730257       0.00723523
Pd       9.64396752       1.38601207       7.43737697  T       0.00000000       0.00000000       0.00000000      -0.00597230      -0.00303936      -0.00802175
Pd       6.88481247       6.88082515       7.41305660  T       0.00000000       0.00000000       0.00000000       0.00082046      -0.00295927       0.00462753
Pd       6.89311815       1.37964283       7.43043925  T       0.00000000       0.00000000       0.00000000      -0.00523101      -0.00736847       0.00569567
Pd       1.38512613       1.38110563       7.41690953  T       0.00000000       0.00000000       0.00000000      -0.00048225      -0.00417869       0.00799242
Pd       8.25936574       8.26040116       5.43448257  T       0.00000000       0.00000000       0.00000000      -0.00616199      -0.00740532       0.00054917
Pd       5.50905455       8.25527017       5.43162344  T       0.00000000       0.00000000       0.00000000       0.00212929      -0.00723400      -0.00821632
Pd       2.75752955       8.25563592       5.43003942  T       0.00000000       0.00000000       0.00000000      -0.00540448      -0.00630223      -0.00991009
Pd       0.00057847       8.25616478       5.43007525  T       0.00000000       0.00000000       0.00000000       0.00046066      -0.00466501      -0.00666566
Pd       8.25580215       5.50014419       5.43257795  T       0.00000000       0.00000000       0.00000000       0.00057207      -0.00233818       0.00433591
Pd       5.51045021       5.50169823       5.43113266  T       0.00000000       0.00000000       0.00000000       0.00208790       0.00307659      -0.00607788
Pd       4.12731010       1.38753870       7.42250578  T       0.00000000       0.00000000       0.00000000      -0.00894920      -0.00836689       0.00528919
Pd       2.75954030       5.50068950       5.43123046  T       0.00000000       0.00000000       0.00000000      -0.00708002      -0.00044391      -0.00837644
Pd       9.63439172       6.88201432       7.41236716  T       0.00000000       0.00000000       0.00000000      -0.00519804      -0.01556746       0.00104091
Pd       4.14188167       9.63103540       7.40849116  T       0.00000000       0.00000000       0.00000000      -0.00799795       0.00083026       0.00592006
Pd       2.76281124       8.25861120       9.40709390  T       0.00000000       0.00000000       0.00000000      -0.00501580       0.00421209      -0.01350009
Pd       0.01100089       8.25542110       9.40731391  T       0.00000000       0.00000000       0.00000000      -0.00181818       0.00194288      -0.00292660
Pd       8.25964776       5.53174472       9.41745863  T       0.00000000       0.00000000       0.00000000       0.01027608      -0.00507279       0.00310861
Pd       5.51182042       5.51342952       9.41671796  T       0.00000000       0.00000000       0.00000000      -0.00412930      -0.00438779       0.00481098
Pd       2.76040708       5.53378774       9.40863028  T       0.00000000       0.00000000       0.00000000      -0.00316064      -0.01316287      -0.00428091
Pd       0.00938966       5.53883512       9.40481616  T       0.00000000       0.00000000       0.00000000      -0.00517886      -0.00472682       0.00420610
Pd       8.27986065       2.81247435       9.47691258  T       0.00000000       0.00000000       0.00000000      -0.01535493       0.01580498      -0.01335234
Pd       1.37961491       9.63074970       7.40336393  T       0.00000000       0.00000000       0.00000000       0.00282879       0.00456702       0.00356238
Pd       5.49720184       2.76034728       9.40816036  T       0.00000000       0.00000000       0.00000000       0.00302927      -0.00608357       0.00340897
Pd       0.02045627       2.76514502       9.50132553  T       0.00000000       0.00000000       0.00000000       0.00313110       0.00452239      -0.00621492
Pd       8.26316649      -0.05901030       9.47380999  T       0.00000000       0.00000000       0.00000000      -0.00498725      -0.00600144      -0.00595106
Pd       5.49452058      -0.00693444       9.39685610  T       0.00000000       0.00000000       0.00000000      -0.00475368       0.00759822       0.02179731
Pd       2.76558371      -0.02456131       9.39927453  T       0.00000000       0.00000000       0.00000000      -0.00536133       0.00098184      -0.00259153
Pd       0.03453787      -0.02648112       9.39984188  T       0.00000000       0.00000000       0.00000000       0.00694154      -0.00424094       0.00313893
Pd       9.62254120       9.64636956       7.43631360  T       0.00000000       0.00000000       0.00000000      -0.00874332      -0.00155088       0.00388642
Pd       6.90050784       9.63789760       7.43222451  T       0.00000000       0.00000000       0.00000000       0.00182985       0.00889132       0.01278300
Pd       2.78139595       2.75109483       9.51444243  T       0.00000000       0.00000000       0.00000000      -0.02420721      -0.00081839      -0.01231171
Pd       0.00030286       5.50117398       5.43104517  T       0.00000000       0.00000000       0.00000000      -0.00522601      -0.00188136      -0.00243042
Pd       8.26169558       2.75048142       5.43852129  T       0.00000000       0.00000000       0.00000000       0.00106108       0.00417241      -0.00395998
Pd       5.50805481       2.75581652       5.43833425  T       0.00000000       0.00000000       0.00000000       0.01044600      -0.00649956       0.00125482
Pd       1.37558630       1.37558630       3.44537281  F       0.00000000       0.00000000       0.00000000       0.00074248       0.01051985       0.23421355
Pd       8.25351783       8.25351783       1.50000000  F       0.00000000       0.00000000       0.00000000      -0.00127941       0.00045491      -0.22539122
Pd       5.50234522       8.25351783       1.50000000  F       0.00000000       0.00000000       0.00000000      -0.00088167       0.00062103      -0.22559855
Pd       2.75117261       8.25351783       1.50000000  F       0.00000000       0.00000000       0.00000000      -0.00130228      -0.00040006      -0.22684452
Pd       0.00000000       8.25351783       1.50000000  F       0.00000000       0.00000000       0.00000000      -0.00018552       0.00046461      -0.22723676
Pd       8.25351783       5.50234522       1.50000000  F       0.00000000       0.00000000       0.00000000      -0.00000835      -0.00022555      -0.22762859
Pd       5.50234522       5.50234522       1.50000000  F       0.00000000       0.00000000       0.00000000      -0.00276209      -0.00072064      -0.22813465
Pd       4.12675891       1.37558630       3.44537281  F       0.00000000       0.00000000       0.00000000       0.02403655       0.01580652       0.23569730
Pd       2.75117261       5.50234522       1.50000000  F       0.00000000       0.00000000       0.00000000      -0.00161192      -0.00069900      -0.22542106
Pd       8.25351783       2.75117261       1.50000000  F       0.00000000       0.00000000       0.00000000      -0.00026370      -0.00043842      -0.22246193
Pd       5.50234522       2.75117261       1.50000000  F       0.00000000       0.00000000       0.00000000      -0.00154895      -0.00125246      -0.22384430
Pd       2.75117261       2.75117261       1.50000000  F       0.00000000       0.00000000       0.00000000      -0.00083237      -0.00050867      -0.22090457
Pd       0.00000000       2.75117261       1.50000000  F       0.00000000       0.00000000       0.00000000      -0.00095433      -0.00137652      -0.22061651
Pd       8.25351783       0.00000000       1.50000000  F       0.00000000       0.00000000       0.00000000      -0.00021377      -0.00136477      -0.22600041
Pd       5.50234522       0.00000000       1.50000000  F       0.00000000       0.00000000       0.00000000      -0.00174734      -0.00041097      -0.22752062
Pd       2.75117261       0.00000000       1.50000000  F       0.00000000       0.00000000       0.00000000      -0.00130300       0.00021729      -0.22646962
Pd       0.00000000       5.50234522       1.50000000  F       0.00000000       0.00000000       0.00000000       0.00047724      -0.00149665      -0.22627173
Pd       6.87793152       1.37558630       3.44537281  F       0.00000000       0.00000000       0.00000000       0.00147988       0.02351304       0.23089682
Pd       9.62910413       1.37558630       3.44537281  F       0.00000000       0.00000000       0.00000000       0.01313009       0.01787352       0.22793757
Pd       1.37558630       4.12675891       3.44537281  F       0.00000000       0.00000000       0.00000000       0.00329387       0.00326889       0.23179500
Pd       2.75540681       2.75598533       5.43179773  T       0.00000000       0.00000000       0.00000000      -0.01194334      -0.00585967      -0.00212839
Pd       0.00443055       2.75622785       5.43591112  T       0.00000000       0.00000000       0.00000000      -0.01031503      -0.00154415      -0.00805879
Pd       8.25672617       0.00508836       5.42997770  T       0.00000000       0.00000000       0.00000000      -0.00127850       0.00166381      -0.00535492
Pd       5.51327315       0.00086074       5.43093903  T       0.00000000       0.00000000       0.00000000       0.00680372       0.00489398      -0.00602014
Pd       2.75866111       0.00488275       5.42665920  T       0.00000000       0.00000000       0.00000000      -0.00781251      -0.00099211      -0.00284823
Pd      -0.00208352       0.00261154       5.43098834  T       0.00000000       0.00000000       0.00000000       0.00005929       0.00819270      -0.00994607
Pd       9.62910413       9.62910413       3.44537281  F       0.00000000       0.00000000       0.00000000       0.00725855       0.00138678       0.21876910
Pd       6.87793152       9.62910413       3.44537281  F       0.00000000       0.00000000       0.00000000       0.01025731      -0.01107364       0.21098973
Pd       4.12675891       9.62910413       3.44537281  F       0.00000000       0.00000000       0.00000000       0.01679041       0.00460843       0.23072903
Pd       1.37558630       9.62910413       3.44537281  F       0.00000000       0.00000000       0.00000000       0.00227673       0.00450244       0.23307976
Pd       9.62910413       6.87793152       3.44537281  F       0.00000000       0.00000000       0.00000000       0.00169436       0.00087995       0.23883246
Pd       6.87793152       6.87793152       3.44537281  F       0.00000000       0.00000000       0.00000000       0.01511583       0.01321501       0.22711600
Pd       4.12675891       6.87793152       3.44537281  F       0.00000000       0.00000000       0.00000000       0.00518132      -0.00023057       0.22110993
Pd       1.37558630       6.87793152       3.44537281  F       0.00000000       0.00000000       0.00000000       0.01400191       0.00010669       0.22446110
Pd       9.62910413       4.12675891       3.44537281  F       0.00000000       0.00000000       0.00000000       0.00240946      -0.00166481       0.23455451
Pd       6.87793152       4.12675891       3.44537281  F       0.00000000       0.00000000       0.00000000       0.01131612      -0.01083645       0.23997353
Pd       4.12675891       4.12675891       3.44537281  F       0.00000000       0.00000000       0.00000000       0.02174260      -0.00390248       0.23164629
Pd       5.51116169       8.25250225       9.41117731  T       0.00000000       0.00000000       0.00000000      -0.00279506       0.00193521      -0.00012730
Pd       8.26455028       8.23354748       9.41494751  T       0.00000000       0.00000000       0.00000000      -0.00345262      -0.00047408       0.00008970
C        1.39600961       2.62584920      10.91167265  T       0.00000000       0.00000000       0.00000000      -0.01671687       0.00328368      -0.00775085
O        1.37090135       2.51812367      12.09408092  T       0.00000000       0.00000000       0.00000000       0.00588069       0.00473782      -0.01043445
O        8.30317227       1.37568630      11.01445711  T       0.00000000       0.00000000       0.00000000      -0.00482546       0.00006672       0.01410943
C        7.24646555       1.39310975      11.97708619  T       0.00000000       0.00000000       0.00000000       0.00162754      -0.00408836       0.02531503
H        7.32071536       0.48774654      12.60897469  T       0.00000000       0.00000000       0.00000000       0.00314622       0.01570853      -0.01618387
H        7.35227648       2.29727303      12.60587741  T       0.00000000       0.00000000       0.00000000      -0.00619870      -0.01831476      -0.00823966
H        6.23696408       1.40828365      11.49320589  T       0.00000000       0.00000000       0.00000000       0.01688470       0.00237305       0.00230922
