87
Lattice="11.004690437655821 0.0 0.0 0.0 11.004690437655821 0.0 0.0 0.0 27.781491233325184" Properties=species:S:1:pos:R:3:move_mask:L:1:momenta:R:3:forces:R:3 idx=1719 E_MACE=-432.0691275463364 d_min=1.9698326561782247 d_reactive=4.269673831069455 rank=9 dE_rel_meV=0.5359879691013703 converged=T energy=-432.0691275463364 stress="0.007851106291033697 -3.3723424245877634e-06 0.00017826290662004179 -3.3723424245877634e-06 0.007495023510374116 8.841677770638581e-05 0.00017826290662004179 8.841677770638581e-05 -0.002101567672007469" pbc="T T T"
Pd       0.00000000       0.00000000       1.50000000  F       0.00000000       0.00000000       0.00000000      -0.00015268       0.00058088      -0.22582160
Pd       4.13583820       6.87733764       7.41535649  T       0.00000000       0.00000000       0.00000000      -0.00567658       0.01103307      -0.01365404
Pd       1.38298033       6.88042031       7.40335483  T       0.00000000       0.00000000       0.00000000       0.01047246       0.01767376      -0.00585299
Pd       9.63402848       4.11680498       7.44662873  T       0.00000000       0.00000000       0.00000000       0.00798111       0.00335676       0.00729446
Pd       6.90243394       4.11950616       7.44308567  T       0.00000000       0.00000000       0.00000000      -0.01072573       0.00624989       0.00105246
Pd       4.13270128       4.12603358       7.43124689  T       0.00000000       0.00000000       0.00000000      -0.00277379      -0.00433406       0.00805674
Pd       1.38289126       4.13747868       7.41567123  T       0.00000000       0.00000000       0.00000000      -0.00567601      -0.01123119       0.01169424
Pd       9.64352937       1.38564080       7.43215858  T       0.00000000       0.00000000       0.00000000      -0.00528548      -0.00212373       0.00533918
Pd       6.88380044       6.88088066       7.41593765  T       0.00000000       0.00000000       0.00000000      -0.00047345       0.00271935       0.00309646
Pd       6.89256356       1.37765869       7.43256269  T       0.00000000       0.00000000       0.00000000      -0.00217918       0.00208285       0.00754414
Pd       1.38754901       1.38314858       7.41137605  T       0.00000000       0.00000000       0.00000000      -0.01992309      -0.00314972       0.00697972
Pd       8.25537117       8.25947536       5.43524553  T       0.00000000       0.00000000       0.00000000       0.00665206       0.00101154       0.00803966
Pd       5.50799096       8.25554913       5.43206602  T       0.00000000       0.00000000       0.00000000      -0.00097332      -0.00262272       0.00626387
Pd       2.75730585       8.25758891       5.42692654  T       0.00000000       0.00000000       0.00000000      -0.00559568      -0.00545069       0.02006132
Pd      -0.00111382       8.25657139       5.42822781  T       0.00000000       0.00000000       0.00000000      -0.00295103       0.00244365       0.00653465
Pd       8.25470083       5.50019870       5.43267931  T       0.00000000       0.00000000       0.00000000       0.00140612       0.00331506      -0.00171586
Pd       5.51183155       5.50311370       5.43142845  T       0.00000000       0.00000000       0.00000000      -0.00004067      -0.00475374      -0.00733639
Pd       4.12975389       1.38766393       7.42151879  T       0.00000000       0.00000000       0.00000000      -0.00491556      -0.00603973       0.00455910
Pd       2.76055056       5.50337773       5.42746456  T       0.00000000       0.00000000       0.00000000      -0.00457279      -0.00461531      -0.00051813
Pd       9.63396581       6.88194719       7.41174490  T       0.00000000       0.00000000       0.00000000      -0.01048353      -0.00141005      -0.00417170
Pd       4.13926935       9.63189273       7.41338018  T       0.00000000       0.00000000       0.00000000      -0.00056715      -0.00518511      -0.02164261
Pd       2.75633565       8.26298341       9.40528898  T       0.00000000       0.00000000       0.00000000       0.00697395      -0.00054533      -0.00807887
Pd       0.00942638       8.25366125       9.40492890  T       0.00000000       0.00000000       0.00000000      -0.00965097       0.00993184      -0.00153146
Pd       8.26542893       5.53432223       9.41579491  T       0.00000000       0.00000000       0.00000000      -0.00862451       0.00018862       0.00648889
Pd       5.51162913       5.50933302       9.41684366  T       0.00000000       0.00000000       0.00000000       0.00635278      -0.00274895       0.00107403
Pd       2.76062081       5.53741569       9.40743058  T       0.00000000       0.00000000       0.00000000      -0.00068594      -0.01119594      -0.00731358
Pd       0.01188868       5.53772043       9.40247188  T       0.00000000       0.00000000       0.00000000      -0.00688252      -0.00121512       0.00420700
Pd       8.28119591       2.82029375       9.47066776  T       0.00000000       0.00000000       0.00000000      -0.00325001      -0.01462276       0.00056396
Pd       1.37775048       9.63284329       7.40206393  T       0.00000000       0.00000000       0.00000000       0.00325588      -0.00879295      -0.00911368
Pd       5.49776556       2.75714385       9.41262859  T       0.00000000       0.00000000       0.00000000      -0.00063190      -0.00385060      -0.00407578
Pd       0.01844042       2.76770788       9.48957615  T       0.00000000       0.00000000       0.00000000       0.00906274      -0.00160539       0.00449881
Pd       8.26208009      -0.05285734       9.47659850  T       0.00000000       0.00000000       0.00000000      -0.00006424       0.00029571      -0.00192516
Pd       5.49051402      -0.00877336       9.40278471  T       0.00000000       0.00000000       0.00000000       0.00522058       0.00585670       0.00653352
Pd       2.76313165      -0.01677039       9.39869978  T       0.00000000       0.00000000       0.00000000      -0.00557716      -0.01100747      -0.00095011
Pd       0.03531787      -0.02550790       9.39465206  T       0.00000000       0.00000000       0.00000000      -0.00439246      -0.00125690       0.00947565
Pd       9.61950123       9.64686296       7.43612431  T       0.00000000       0.00000000       0.00000000      -0.00842904      -0.00832788      -0.00045613
Pd       6.89644575       9.63957681       7.43835043  T       0.00000000       0.00000000       0.00000000       0.01311264      -0.00586610       0.00140171
Pd       2.77920913       2.75796810       9.49960312  T       0.00000000       0.00000000       0.00000000      -0.00388739      -0.00114617       0.00436071
Pd      -0.00073095       5.50267820       5.42726143  T       0.00000000       0.00000000       0.00000000      -0.00302899      -0.00258867       0.00171297
Pd       8.26168564       2.74952369       5.43680096  T       0.00000000       0.00000000       0.00000000      -0.00172229       0.00209091      -0.00090832
Pd       5.51246772       2.75455199       5.43891292  T       0.00000000       0.00000000       0.00000000      -0.01317646       0.00034605      -0.00761889
Pd       1.37558630       1.37558630       3.44537281  F       0.00000000       0.00000000       0.00000000       0.00633261       0.01073069       0.22712998
Pd       8.25351783       8.25351783       1.50000000  F       0.00000000       0.00000000       0.00000000      -0.00063692       0.00025291      -0.22484278
Pd       5.50234522       8.25351783       1.50000000  F       0.00000000       0.00000000       0.00000000      -0.00114917       0.00027821      -0.22546547
Pd       2.75117261       8.25351783       1.50000000  F       0.00000000       0.00000000       0.00000000      -0.00187773      -0.00062379      -0.22714961
Pd       0.00000000       8.25351783       1.50000000  F       0.00000000       0.00000000       0.00000000       0.00020093       0.00023781      -0.22727299
Pd       8.25351783       5.50234522       1.50000000  F       0.00000000       0.00000000       0.00000000       0.00068917      -0.00068865      -0.22714963
Pd       5.50234522       5.50234522       1.50000000  F       0.00000000       0.00000000       0.00000000      -0.00302504      -0.00083698      -0.22759214
Pd       4.12675891       1.37558630       3.44537281  F       0.00000000       0.00000000       0.00000000       0.03001314       0.01658995       0.23831726
Pd       2.75117261       5.50234522       1.50000000  F       0.00000000       0.00000000       0.00000000      -0.00233299      -0.00081062      -0.22567595
Pd       8.25351783       2.75117261       1.50000000  F       0.00000000       0.00000000       0.00000000       0.00029825      -0.00032891      -0.22221920
Pd       5.50234522       2.75117261       1.50000000  F       0.00000000       0.00000000       0.00000000      -0.00220318      -0.00097464      -0.22333918
Pd       2.75117261       2.75117261       1.50000000  F       0.00000000       0.00000000       0.00000000      -0.00158777      -0.00056913      -0.22102642
Pd       0.00000000       2.75117261       1.50000000  F       0.00000000       0.00000000       0.00000000      -0.00050485      -0.00127124      -0.22116755
Pd       8.25351783       0.00000000       1.50000000  F       0.00000000       0.00000000       0.00000000       0.00043920      -0.00086588      -0.22545996
Pd       5.50234522       0.00000000       1.50000000  F       0.00000000       0.00000000       0.00000000      -0.00213602      -0.00038802      -0.22688857
Pd       2.75117261       0.00000000       1.50000000  F       0.00000000       0.00000000       0.00000000      -0.00188030       0.00024948      -0.22665132
Pd       0.00000000       5.50234522       1.50000000  F       0.00000000       0.00000000       0.00000000       0.00085405      -0.00177290      -0.22636158
Pd       6.87793152       1.37558630       3.44537281  F       0.00000000       0.00000000       0.00000000       0.00133147       0.01980513       0.22427492
Pd       9.62910413       1.37558630       3.44537281  F       0.00000000       0.00000000       0.00000000       0.00779782       0.01296810       0.21715584
Pd       1.37558630       4.12675891       3.44537281  F       0.00000000       0.00000000       0.00000000       0.00729018       0.00393921       0.22142240
Pd       2.75678512       2.75715126       5.43026041  T       0.00000000       0.00000000       0.00000000      -0.00290932      -0.00669983      -0.00284304
Pd       0.00339245       2.75673985       5.43144893  T       0.00000000       0.00000000       0.00000000       0.00312577      -0.00226172       0.00634702
Pd       8.25528776       0.00323784       5.42950310  T       0.00000000       0.00000000       0.00000000       0.00082913       0.00243636      -0.00075009
Pd       5.51478959      -0.00034169       5.43152836  T       0.00000000       0.00000000       0.00000000      -0.00809846       0.00193413      -0.00232765
Pd       2.75948058       0.00555318       5.42619132  T       0.00000000       0.00000000       0.00000000      -0.00266324      -0.00578857      -0.00316452
Pd      -0.00250998       0.00339672       5.42854222  T       0.00000000       0.00000000       0.00000000      -0.00013676      -0.00227511       0.00115147
Pd       9.62910413       9.62910413       3.44537281  F       0.00000000       0.00000000       0.00000000       0.00038453      -0.00233960       0.21664011
Pd       6.87793152       9.62910413       3.44537281  F       0.00000000       0.00000000       0.00000000       0.00767988      -0.01389688       0.20618592
Pd       4.12675891       9.62910413       3.44537281  F       0.00000000       0.00000000       0.00000000       0.02066258       0.00962111       0.22546467
Pd       1.37558630       9.62910413       3.44537281  F       0.00000000       0.00000000       0.00000000       0.00053276       0.00872817       0.22603017
Pd       9.62910413       6.87793152       3.44537281  F       0.00000000       0.00000000       0.00000000      -0.00746737       0.00477884       0.23296681
Pd       6.87793152       6.87793152       3.44537281  F       0.00000000       0.00000000       0.00000000       0.01346598       0.01303746       0.22337604
Pd       4.12675891       6.87793152       3.44537281  F       0.00000000       0.00000000       0.00000000       0.01158012       0.00244003       0.21164673
Pd       1.37558630       6.87793152       3.44537281  F       0.00000000       0.00000000       0.00000000       0.01155960       0.00530308       0.21133242
Pd       9.62910413       4.12675891       3.44537281  F       0.00000000       0.00000000       0.00000000      -0.00431142       0.00177641       0.22289345
Pd       6.87793152       4.12675891       3.44537281  F       0.00000000       0.00000000       0.00000000       0.01006764      -0.00918566       0.23642579
Pd       4.12675891       4.12675891       3.44537281  F       0.00000000       0.00000000       0.00000000       0.03138519      -0.00643576       0.23318224
Pd       5.50730832       8.24848163       9.41543906  T       0.00000000       0.00000000       0.00000000      -0.00409213       0.00672047      -0.00634462
Pd       8.26286074       8.23659940       9.41815193  T       0.00000000       0.00000000       0.00000000      -0.00312577       0.00043726      -0.01038624
C        1.39650978       2.65435269      10.89876252  T       0.00000000       0.00000000       0.00000000      -0.02011177      -0.01051792       0.04398991
O        1.37582076       2.56076510      12.08287809  T       0.00000000       0.00000000       0.00000000       0.00204973       0.00987156      -0.03944066
O        8.32534230       1.38790743      11.01543860  T       0.00000000       0.00000000       0.00000000      -0.01866238      -0.00026004      -0.01622874
C        7.26764671       1.41956386      11.97697171  T       0.00000000       0.00000000       0.00000000      -0.00167799      -0.00745126      -0.00828981
H        7.24593966       0.46092884      12.52686894  T       0.00000000       0.00000000       0.00000000       0.00270452      -0.00753672       0.01222734
H        7.45663701       2.25153822      12.68031462  T       0.00000000       0.00000000       0.00000000      -0.00544050       0.00315577       0.00166032
H        6.26893418       1.57342709      11.49467993  T       0.00000000       0.00000000       0.00000000       0.00723614       0.00499729       0.01406899
