87
Lattice="11.004690437655821 0.0 0.0 0.0 11.004690437655821 0.0 0.0 0.0 27.781491233325184" Properties=species:S:1:pos:R:3:move_mask:L:1:momenta:R:3:forces:R:3 idx=4964 E_MACE=-431.9375167480548 d_min=1.9471727005133816 d_reactive=3.122901925650296 rank=3168 dE_rel_meV=132.14678625070064 converged=T energy=-431.9375167480548 stress="0.007588003338005307 2.927498399351052e-06 0.0002483104112627769 2.927498399351052e-06 0.007689604217621933 3.694035278332208e-05 0.0002483104112627769 3.694035278332208e-05 -0.002027874602520416" pbc="T T T"
Pd       0.00000000       0.00000000       1.50000000  F       0.00000000       0.00000000       0.00000000      -0.00177381      -0.00188328      -0.22860175
Pd       4.12604356       6.87192100       7.41332173  T       0.00000000       0.00000000       0.00000000       0.01137702       0.01241256      -0.00546132
Pd       1.38425743       6.88153914       7.41116027  T       0.00000000       0.00000000       0.00000000      -0.00769934       0.00660625       0.01093129
Pd       9.63608019       4.11918732       7.45582843  T       0.00000000       0.00000000       0.00000000      -0.01003762      -0.00499451       0.00657836
Pd       6.91268493       4.11201406       7.45460038  T       0.00000000       0.00000000       0.00000000      -0.02163047      -0.01479879       0.00718689
Pd       4.15673154       4.11978936       7.43013549  T       0.00000000       0.00000000       0.00000000       0.01473501      -0.00747778      -0.00032687
Pd       1.39310514       4.12598071       7.43079470  T       0.00000000       0.00000000       0.00000000      -0.02099619      -0.01377287       0.00877358
Pd       9.63613803       1.39796526       7.45198933  T       0.00000000       0.00000000       0.00000000      -0.01836778       0.00128067      -0.00136516
Pd       6.87969500       6.86861006       7.40443513  T       0.00000000       0.00000000       0.00000000       0.00661359       0.00481436       0.01414722
Pd       6.91385586       1.38453435       7.45413843  T       0.00000000       0.00000000       0.00000000      -0.01992783       0.01671403       0.00906480
Pd       1.38827240       1.39509334       7.43435918  T       0.00000000       0.00000000       0.00000000      -0.00314994       0.00696660       0.00100264
Pd       8.25567270       8.25331958       5.42888280  T       0.00000000       0.00000000       0.00000000      -0.00110214       0.01050184      -0.02202018
Pd       5.50427423       8.25010044       5.43084900  T       0.00000000       0.00000000       0.00000000      -0.01304343       0.00906214      -0.01889437
Pd       2.75252433       8.25419410       5.42913042  T       0.00000000       0.00000000       0.00000000       0.00613769       0.00352599      -0.00167707
Pd       0.00337232       8.25755665       5.42732660  T       0.00000000       0.00000000       0.00000000      -0.00715849       0.00322303      -0.00138307
Pd       8.26140109       5.49177742       5.43449701  T       0.00000000       0.00000000       0.00000000      -0.00032761       0.00555711      -0.01660256
Pd       5.50949238       5.49222932       5.43378032  T       0.00000000       0.00000000       0.00000000      -0.00885864       0.00122209      -0.01479322
Pd       4.15603595       1.37548275       7.42555424  T       0.00000000       0.00000000       0.00000000       0.00432226       0.00905496       0.00055464
Pd       2.75544186       5.50027488       5.42810446  T       0.00000000       0.00000000       0.00000000       0.00710867       0.01202963      -0.01842192
Pd       9.63614600       6.87983891       7.40288074  T       0.00000000       0.00000000       0.00000000       0.00931292       0.00670334       0.01665419
Pd       4.12729595       9.62905160       7.40892997  T       0.00000000       0.00000000       0.00000000       0.01377465      -0.00548150       0.00624238
Pd       2.75240688       8.25794156       9.40966702  T       0.00000000       0.00000000       0.00000000      -0.00203681      -0.00621078      -0.01078795
Pd      -0.00007228       8.27067149       9.39823336  T       0.00000000       0.00000000       0.00000000      -0.00064894      -0.01541778      -0.00506670
Pd       8.26258779       5.55232105       9.40969110  T       0.00000000       0.00000000       0.00000000      -0.00404221      -0.00705677      -0.01694750
Pd       5.51282085       5.52531227       9.41021682  T       0.00000000       0.00000000       0.00000000      -0.00461646      -0.00820826      -0.00442006
Pd       2.76861688       5.50274049       9.41622146  T       0.00000000       0.00000000       0.00000000      -0.00565701       0.01511339      -0.00192617
Pd       0.02128540       5.54386864       9.40626856  T       0.00000000       0.00000000       0.00000000      -0.00344095       0.01010736      -0.00289908
Pd       8.24506510       2.74106741       9.65054186  T       0.00000000       0.00000000       0.00000000       0.00489219       0.01597353       0.00034801
Pd       1.38368004       9.63943165       7.40918953  T       0.00000000       0.00000000       0.00000000       0.00414552      -0.01147507       0.00127943
Pd       5.49644312       2.73860020       9.48680753  T       0.00000000       0.00000000       0.00000000      -0.01867189       0.01053935      -0.04325926
Pd       0.11963269       2.76926633       9.44641633  T       0.00000000       0.00000000       0.00000000       0.00300322      -0.01246114      -0.00751847
Pd       8.26620215      -0.05028920       9.41374487  T       0.00000000       0.00000000       0.00000000      -0.00142886      -0.00344015      -0.00808423
Pd       5.51274821      -0.03883964       9.41171553  T       0.00000000       0.00000000       0.00000000      -0.00777595       0.00439740      -0.01231761
Pd       2.76753991       0.00200483       9.41096170  T       0.00000000       0.00000000       0.00000000      -0.00029798      -0.01182359      -0.00200216
Pd       0.02255374      -0.00971254       9.39855856  T       0.00000000       0.00000000       0.00000000      -0.00461844      -0.01784241       0.01423001
Pd       9.63564281       9.64411468       7.40335116  T       0.00000000       0.00000000       0.00000000       0.00799260      -0.01919563       0.01140601
Pd       6.88042202       9.63543915       7.40237858  T       0.00000000       0.00000000       0.00000000      -0.00160709      -0.00541027       0.01642901
Pd       2.81741736       2.74955640       9.41704071  T       0.00000000       0.00000000       0.00000000      -0.03791335       0.00818296      -0.00142365
Pd       0.00732626       5.49819102       5.43254204  T       0.00000000       0.00000000       0.00000000      -0.00724886       0.00439374      -0.01146073
Pd       8.26556359       2.75163076       5.44236048  T       0.00000000       0.00000000       0.00000000      -0.00027459       0.00249289      -0.02126267
Pd       5.52423537       2.74995881       5.44357932  T       0.00000000       0.00000000       0.00000000      -0.00152498      -0.00200383      -0.00538665
Pd       1.37558630       1.37558630       3.44537281  F       0.00000000       0.00000000       0.00000000       0.01386736       0.03066348       0.24179592
Pd       8.25351783       8.25351783       1.50000000  F       0.00000000       0.00000000       0.00000000      -0.00100410      -0.00027526      -0.22848179
Pd       5.50234522       8.25351783       1.50000000  F       0.00000000       0.00000000       0.00000000      -0.00219563       0.00027606      -0.22726073
Pd       2.75117261       8.25351783       1.50000000  F       0.00000000       0.00000000       0.00000000      -0.00107906      -0.00003974      -0.22737968
Pd       0.00000000       8.25351783       1.50000000  F       0.00000000       0.00000000       0.00000000       0.00068924      -0.00057168      -0.22649420
Pd       8.25351783       5.50234522       1.50000000  F       0.00000000       0.00000000       0.00000000      -0.00108761       0.00078153      -0.22663731
Pd       5.50234522       5.50234522       1.50000000  F       0.00000000       0.00000000       0.00000000      -0.00122062       0.00090670      -0.22624831
Pd       4.12675891       1.37558630       3.44537281  F       0.00000000       0.00000000       0.00000000       0.02343933       0.02382061       0.24578262
Pd       2.75117261       5.50234522       1.50000000  F       0.00000000       0.00000000       0.00000000      -0.00166556       0.00249744      -0.22874210
Pd       8.25351783       2.75117261       1.50000000  F       0.00000000       0.00000000       0.00000000      -0.00171680      -0.00016432      -0.21874591
Pd       5.50234522       2.75117261       1.50000000  F       0.00000000       0.00000000       0.00000000      -0.00207182      -0.00005089      -0.22078940
Pd       2.75117261       2.75117261       1.50000000  F       0.00000000       0.00000000       0.00000000      -0.00135486      -0.00043968      -0.22421054
Pd       0.00000000       2.75117261       1.50000000  F       0.00000000       0.00000000       0.00000000      -0.00081981      -0.00019657      -0.22238434
Pd       8.25351783       0.00000000       1.50000000  F       0.00000000       0.00000000       0.00000000      -0.00080056      -0.00121383      -0.22714033
Pd       5.50234522       0.00000000       1.50000000  F       0.00000000       0.00000000       0.00000000      -0.00141782      -0.00090064      -0.22606647
Pd       2.75117261       0.00000000       1.50000000  F       0.00000000       0.00000000       0.00000000      -0.00148126      -0.00285502      -0.22952893
Pd       0.00000000       5.50234522       1.50000000  F       0.00000000       0.00000000       0.00000000      -0.00158756       0.00129910      -0.22782395
Pd       6.87793152       1.37558630       3.44537281  F       0.00000000       0.00000000       0.00000000       0.01811909       0.01538855       0.23176770
Pd       9.62910413       1.37558630       3.44537281  F       0.00000000       0.00000000       0.00000000       0.01844243       0.01598646       0.23163460
Pd       1.37558630       4.12675891       3.44537281  F       0.00000000       0.00000000       0.00000000       0.01536351      -0.01900448       0.24463994
Pd       2.76476600       2.75252745       5.43900580  T       0.00000000       0.00000000       0.00000000      -0.00642919      -0.00355686      -0.01062310
Pd       0.00382438       2.75536378       5.44201032  T       0.00000000       0.00000000       0.00000000      -0.00682831       0.00408040      -0.00402244
Pd       8.26089516       0.01161567       5.43397877  T       0.00000000       0.00000000       0.00000000      -0.00399927      -0.00714470      -0.02637113
Pd       5.50885818       0.00712814       5.43080102  T       0.00000000       0.00000000       0.00000000      -0.00131004      -0.00769831      -0.00246873
Pd       2.75496817       0.00514933       5.42722201  T       0.00000000       0.00000000       0.00000000       0.00247108      -0.01611576      -0.01109507
Pd       0.00810942       0.01305702       5.43345232  T       0.00000000       0.00000000       0.00000000      -0.00720932      -0.01037374      -0.01859623
Pd       9.62910413       9.62910413       3.44537281  F       0.00000000       0.00000000       0.00000000       0.00434623       0.02030795       0.24399485
Pd       6.87793152       9.62910413       3.44537281  F       0.00000000       0.00000000       0.00000000       0.00799375       0.00795492       0.24379723
Pd       4.12675891       9.62910413       3.44537281  F       0.00000000       0.00000000       0.00000000       0.01673682      -0.00238324       0.22260592
Pd       1.37558630       9.62910413       3.44537281  F       0.00000000       0.00000000       0.00000000      -0.00072713       0.00890848       0.21567572
Pd       9.62910413       6.87793152       3.44537281  F       0.00000000       0.00000000       0.00000000       0.00397883      -0.01021041       0.24249372
Pd       6.87793152       6.87793152       3.44537281  F       0.00000000       0.00000000       0.00000000       0.00823753      -0.01608137       0.24528809
Pd       4.12675891       6.87793152       3.44537281  F       0.00000000       0.00000000       0.00000000       0.01657801      -0.00441592       0.22566466
Pd       1.37558630       6.87793152       3.44537281  F       0.00000000       0.00000000       0.00000000      -0.00013695       0.00257389       0.21512331
Pd       9.62910413       4.12675891       3.44537281  F       0.00000000       0.00000000       0.00000000       0.01687734      -0.00755884       0.22889113
Pd       6.87793152       4.12675891       3.44537281  F       0.00000000       0.00000000       0.00000000       0.01720412      -0.01488736       0.23631376
Pd       4.12675891       4.12675891       3.44537281  F       0.00000000       0.00000000       0.00000000       0.02557216      -0.02109931       0.25113565
Pd       5.50371965       8.24739793       9.39804773  T       0.00000000       0.00000000       0.00000000       0.00350181       0.00608493       0.00957007
Pd       8.25584105       8.25762544       9.39364605  T       0.00000000       0.00000000       0.00000000       0.00521884      -0.01154666       0.00126107
C        6.75734637       2.60562912      10.96461781  T       0.00000000       0.00000000       0.00000000      -0.02235476       0.01232377       0.03107491
O        6.69728564       2.50851126      12.14761528  T       0.00000000       0.00000000       0.00000000       0.00089559       0.01168378      -0.03347126
O        9.87436571       2.76037811      11.07757625  T       0.00000000       0.00000000       0.00000000      -0.01726416      -0.02420299       0.00904326
C        9.94900673       3.84443738      12.00337385  T       0.00000000       0.00000000       0.00000000      -0.01010777       0.00960675       0.01086325
H        9.06587373       3.80454553      12.66475919  T       0.00000000       0.00000000       0.00000000      -0.00785017       0.01836628       0.01276286
H       10.87249333       3.74556571      12.60160562  T       0.00000000       0.00000000       0.00000000       0.02850857      -0.01888818       0.01498428
H        9.96593094       4.83982730      11.48702537  T       0.00000000       0.00000000       0.00000000      -0.00185919      -0.00355615      -0.00210065
