       N       E                     dE             d eps       ncg     rms          rms(c)
DAV:   1     0.112876736674E+05    0.11288E+05   -0.70422E+05 17440   0.144E+03
DAV:   2     0.260602847416E+03   -0.11027E+05   -0.10651E+05 17284   0.399E+02
DAV:   3    -0.573929263316E+03   -0.83453E+03   -0.80398E+03 16952   0.104E+02
DAV:   4    -0.598602205072E+03   -0.24673E+02   -0.24480E+02 16936   0.180E+01
DAV:   5    -0.599044038617E+03   -0.44183E+00   -0.44123E+00 16888   0.251E+00    0.841E+01
DAV:   6    -0.518027241921E+03    0.81017E+02   -0.56595E+02 15740   0.391E+01    0.578E+01
DAV:   7    -0.671685119095E+03   -0.15366E+03   -0.23313E+02 17312   0.451E+01    0.896E+01
DAV:   8    -0.522098375538E+03    0.14959E+03   -0.19618E+02 18046   0.329E+01    0.615E+01
DAV:   9    -0.459888853630E+03    0.62210E+02   -0.85528E+01 16848   0.178E+01    0.348E+01
DAV:  10    -0.448524720118E+03    0.11364E+02   -0.20649E+01 16744   0.902E+00    0.250E+01
DAV:  11    -0.448685154254E+03   -0.16043E+00   -0.79456E+00 16136   0.545E+00    0.203E+01
DAV:  12    -0.450505176941E+03   -0.18200E+01   -0.11657E+01 16072   0.681E+00    0.157E+01
DAV:  13    -0.456572255630E+03   -0.60671E+01   -0.72539E+00 16224   0.446E+00    0.127E+01
DAV:  14    -0.464451875161E+03   -0.78796E+01   -0.77920E+00 16008   0.460E+00    0.115E+01
DAV:  15    -0.475639315156E+03   -0.11187E+02   -0.10037E+01 15984   0.401E+00    0.921E+00
DAV:  16    -0.488213986512E+03   -0.12575E+02   -0.56976E+00 15842   0.355E+00    0.678E+00
DAV:  17    -0.500447016457E+03   -0.12233E+02   -0.64331E+00 15984   0.315E+00    0.678E+00
DAV:  18    -0.505009346268E+03   -0.45623E+01   -0.15741E+00 16008   0.210E+00    0.530E+00
DAV:  19    -0.515666687735E+03   -0.10657E+02   -0.59158E+00 15832   0.291E+00    0.551E+00
DAV:  20    -0.520687298840E+03   -0.50206E+01   -0.17500E+00 15882   0.209E+00    0.371E+00
DAV:  21    -0.527649984598E+03   -0.69627E+01   -0.24818E+00 15928   0.171E+00    0.305E+00
DAV:  22    -0.532337609100E+03   -0.46876E+01   -0.14098E+00 16198   0.122E+00    0.265E+00
DAV:  23    -0.537230322967E+03   -0.48927E+01   -0.22717E+00 15932   0.124E+00    0.173E+00
DAV:  24    -0.540523873683E+03   -0.32936E+01   -0.12680E+00 16432   0.918E-01    0.172E+00
DAV:  25    -0.541951731393E+03   -0.14279E+01   -0.34872E-01 16156   0.605E-01    0.133E+00
DAV:  26    -0.542804782353E+03   -0.85305E+00   -0.15730E-01 16200   0.504E-01    0.111E+00
DAV:  27    -0.543422450657E+03   -0.61767E+00   -0.16244E-01 15740   0.432E-01    0.859E-01
DAV:  28    -0.543551010387E+03   -0.12856E+00   -0.51391E-02 15822   0.371E-01    0.794E-01
DAV:  29    -0.543617716608E+03   -0.66706E-01   -0.28742E-02 15744   0.261E-01    0.634E-01
DAV:  30    -0.543713660662E+03   -0.95944E-01   -0.18515E-02 15790   0.245E-01    0.466E-01
DAV:  31    -0.543785923692E+03   -0.72263E-01   -0.74284E-03 16056   0.210E-01    0.296E-01
DAV:  32    -0.543861675399E+03   -0.75752E-01   -0.32814E-03 15900   0.135E-01    0.178E-01
DAV:  33    -0.543954019971E+03   -0.92345E-01   -0.45073E-03 15756   0.138E-01    0.268E-01
DAV:  34    -0.544071271740E+03   -0.11725E+00   -0.13824E-02 15720   0.218E-01    0.284E-01
DAV:  35    -0.544094254231E+03   -0.22982E-01   -0.17349E-03 15878   0.813E-02    0.335E-01
DAV:  36    -0.544097498238E+03   -0.32440E-02   -0.30133E-04 16312   0.321E-02    0.277E-01
DAV:  37    -0.544106271065E+03   -0.87728E-02   -0.17187E-03 17128   0.870E-02    0.750E-02
DAV:  38    -0.544113945543E+03   -0.76745E-02   -0.52216E-04 15762   0.463E-02    0.359E-02
DAV:  39    -0.544116353021E+03   -0.24075E-02   -0.25108E-03 18256   0.933E-02    0.206E-01
DAV:  40    -0.544115857443E+03    0.49558E-03   -0.16818E-03 16048   0.730E-02    0.184E-02
DAV:  41    -0.544116279485E+03   -0.42204E-03   -0.86461E-05 14924   0.157E-02    0.145E-02
DAV:  42    -0.544116582852E+03   -0.30337E-03   -0.59735E-04 15998   0.443E-02    0.961E-02
DAV:  43    -0.544116480264E+03    0.10259E-03   -0.40828E-04 14520   0.370E-02    0.737E-03
DAV:  44    -0.544116616995E+03   -0.13673E-03   -0.61647E-05 12190   0.137E-02    0.383E-02
DAV:  45    -0.544116663472E+03   -0.46477E-04   -0.54330E-05 13350   0.132E-02    0.764E-03
DAV:  46    -0.544116725419E+03   -0.61947E-04   -0.37026E-05 12604   0.110E-02    0.173E-02
DAV:  47    -0.544116755666E+03   -0.30247E-04   -0.55020E-06 13606   0.369E-03    0.222E-02
DAV:  48    -0.544116766527E+03   -0.10861E-04   -0.54260E-07 10206   0.139E-03    0.218E-02
DAV:  49    -0.544116743902E+03    0.22626E-04   -0.26811E-06 10904   0.309E-03    0.133E-02
DAV:  50    -0.544116754774E+03   -0.10872E-04   -0.32918E-07 10150   0.861E-04    0.136E-02
DAV:  51    -0.544116769764E+03   -0.14990E-04   -0.70608E-07 10080   0.168E-03    0.113E-02
DAV:  52    -0.544116786027E+03   -0.16263E-04   -0.37085E-06  9848   0.362E-03    0.322E-03
DAV:  53    -0.544116808131E+03   -0.22104E-04   -0.18436E-06 10160   0.236E-03    0.204E-03
DAV:  54    -0.544116817863E+03   -0.97323E-05   -0.20209E-07 10192   0.578E-04    0.238E-03
DAV:  55    -0.544116824249E+03   -0.63860E-05   -0.40897E-08 10008   0.231E-04    0.248E-03
DAV:  56    -0.544116828490E+03   -0.42409E-05   -0.35112E-08 10112   0.239E-04    0.278E-03
DAV:  57    -0.544116829913E+03   -0.14228E-05   -0.42038E-08  9912   0.379E-04    0.201E-03
DAV:  58    -0.544116830643E+03   -0.73004E-06   -0.17257E-08  9480   0.227E-04
   1 F= -.57066317E+03 E0= -.57064264E+03  d E =-.570663E+03  mag=    14.7648
       N       E                     dE             d eps       ncg     rms          rms(c)
DAV:   1    -0.543795030011E+03    0.32180E+00   -0.69898E+01 17028   0.159E+01    0.233E+00
DAV:   2    -0.544797110256E+03   -0.10021E+01   -0.61319E+00 15784   0.409E+00    0.698E+00
DAV:   3    -0.544372211598E+03    0.42490E+00   -0.26444E+00 15930   0.302E+00    0.317E+00
DAV:   4    -0.544260888691E+03    0.11132E+00   -0.47550E-01 15822   0.142E+00    0.117E+00
DAV:   5    -0.544244038911E+03    0.16850E-01   -0.42921E-02 15718   0.484E-01    0.613E-01
DAV:   6    -0.544242924727E+03    0.11142E-02   -0.89411E-03 15734   0.248E-01    0.388E-01
DAV:   7    -0.544243698609E+03   -0.77388E-03   -0.56081E-03 15756   0.206E-01    0.307E-01
DAV:   8    -0.544243296405E+03    0.40220E-03   -0.40199E-03 15744   0.154E-01    0.121E-01
DAV:   9    -0.544243834187E+03   -0.53778E-03   -0.10811E-03 15832   0.889E-02    0.142E-01
DAV:  10    -0.544243810088E+03    0.24098E-04   -0.74718E-04 15966   0.692E-02    0.519E-02
DAV:  11    -0.544243897171E+03   -0.87083E-04   -0.77530E-05 15958   0.198E-02    0.189E-02
DAV:  12    -0.544243974802E+03   -0.77631E-04   -0.24497E-05 15536   0.115E-02    0.140E-02
DAV:  13    -0.544244035798E+03   -0.60996E-04   -0.83378E-06 14824   0.757E-03    0.109E-02
DAV:  14    -0.544244096804E+03   -0.61006E-04   -0.50179E-06 13616   0.442E-03    0.993E-03
DAV:  15    -0.544244164114E+03   -0.67309E-04   -0.28350E-06 12216   0.386E-03    0.555E-03
DAV:  16    -0.544244211135E+03   -0.47022E-04   -0.82485E-07 10216   0.222E-03    0.435E-03
DAV:  17    -0.544244256360E+03   -0.45225E-04   -0.43977E-07 10096   0.163E-03    0.417E-03
DAV:  18    -0.544244317411E+03   -0.61051E-04   -0.56286E-07 10444   0.159E-03    0.365E-03
DAV:  19    -0.544244327382E+03   -0.99706E-05   -0.10917E-06 10796   0.174E-03    0.248E-03
DAV:  20    -0.544244306370E+03    0.21012E-04   -0.28427E-07 10480   0.101E-03    0.225E-03
DAV:  21    -0.544244292272E+03    0.14097E-04   -0.20885E-07  9944   0.902E-04    0.167E-03
DAV:  22    -0.544244286296E+03    0.59769E-05   -0.22278E-07  9980   0.664E-04    0.122E-03
DAV:  23    -0.544244293714E+03   -0.74188E-05   -0.87311E-08  9978   0.550E-04    0.108E-03
DAV:  24    -0.544244305514E+03   -0.11800E-04   -0.48402E-08  9770   0.373E-04    0.685E-04
DAV:  25    -0.544244330094E+03   -0.24580E-04   -0.54189E-08  9892   0.295E-04    0.723E-04
DAV:  26    -0.544244366831E+03   -0.36737E-04   -0.78511E-08 10032   0.226E-04    0.548E-04
DAV:  27    -0.544244384782E+03   -0.17951E-04   -0.30207E-08 10182   0.211E-04    0.431E-04
DAV:  28    -0.544244403657E+03   -0.18876E-04   -0.35357E-08  9944   0.213E-04    0.364E-04
DAV:  29    -0.544244422509E+03   -0.18852E-04   -0.45562E-08 10024   0.161E-04    0.342E-04
DAV:  30    -0.544244428474E+03   -0.59648E-05   -0.19178E-08  9872   0.132E-04    0.295E-04
DAV:  31    -0.544244432827E+03   -0.43523E-05   -0.16224E-08  9856   0.931E-05    0.279E-04
DAV:  32    -0.544244435841E+03   -0.30145E-05   -0.15494E-08  9792   0.827E-05    0.275E-04
DAV:  33    -0.544244436983E+03   -0.11422E-05   -0.62520E-09  9704   0.633E-05    0.273E-04
DAV:  34    -0.544244437406E+03   -0.42270E-06   -0.30638E-09  9480   0.411E-05
   2 F= -.57077621E+03 E0= -.57075478E+03  d E =-.113039E+00  mag=    14.7674
       N       E                     dE             d eps       ncg     rms          rms(c)
DAV:   1    -0.544243864349E+03    0.57263E-03   -0.45925E-02 17160   0.406E-01    0.599E-02
DAV:   2    -0.544244494188E+03   -0.62984E-03   -0.46787E-03 15582   0.107E-01    0.183E-01
DAV:   3    -0.544244187278E+03    0.30691E-03   -0.22799E-03 15666   0.954E-02    0.693E-02
DAV:   4    -0.544244151301E+03    0.35977E-04   -0.27831E-04 15586   0.371E-02    0.258E-02
DAV:   5    -0.544244146685E+03    0.46161E-05   -0.22081E-05 15108   0.112E-02    0.131E-02
DAV:   6    -0.544244148336E+03   -0.16507E-05   -0.65597E-06 14330   0.734E-03    0.891E-03
DAV:   7    -0.544244150356E+03   -0.20202E-05   -0.42408E-06 13334   0.609E-03    0.478E-03
DAV:   8    -0.544244150854E+03   -0.49802E-06   -0.18874E-06  9870   0.286E-03
   3 F= -.57077630E+03 E0= -.57075490E+03  d E =-.113126E+00  mag=    14.7677
       N       E                     dE             d eps       ncg     rms          rms(c)
DAV:   1    -0.544183141652E+03    0.61009E-01   -0.66979E+00 19564   0.704E+00    0.606E-01
DAV:   2    -0.544263205244E+03   -0.80064E-01   -0.82679E-01 15532   0.129E+00    0.877E-01
DAV:   3    -0.544268553777E+03   -0.53485E-02   -0.12006E-01 15700   0.628E-01    0.101E+00
DAV:   4    -0.544256793356E+03    0.11760E-01   -0.28485E-02 15730   0.449E-01    0.279E-01
DAV:   5    -0.544256409510E+03    0.38385E-03   -0.42942E-03 15690   0.159E-01    0.214E-01
DAV:   6    -0.544256196639E+03    0.21287E-03   -0.17370E-03 15764   0.107E-01    0.118E-01
DAV:   7    -0.544256031638E+03    0.16500E-03   -0.85629E-04 16030   0.919E-02    0.653E-02
DAV:   8    -0.544255928103E+03    0.10354E-03   -0.26123E-04 15672   0.375E-02    0.214E-02
DAV:   9    -0.544255872753E+03    0.55349E-04   -0.24941E-05 15790   0.150E-02    0.172E-02
DAV:  10    -0.544255845350E+03    0.27403E-04   -0.16099E-05 15186   0.107E-02    0.981E-03
DAV:  11    -0.544255833967E+03    0.11384E-04   -0.55133E-06 13598   0.520E-03    0.627E-03
DAV:  12    -0.544255844552E+03   -0.10585E-04   -0.27317E-06 10922   0.350E-03    0.700E-03
DAV:  13    -0.544255866335E+03   -0.21783E-04   -0.11909E-06 10130   0.205E-03    0.522E-03
DAV:  14    -0.544255903148E+03   -0.36814E-04   -0.61267E-07 10230   0.181E-03    0.406E-03
DAV:  15    -0.544256000040E+03   -0.96892E-04   -0.96263E-07 10852   0.120E-03    0.297E-03
DAV:  16    -0.544256150562E+03   -0.15052E-03   -0.20087E-06 11744   0.166E-03    0.233E-03
DAV:  17    -0.544256240656E+03   -0.90095E-04   -0.87580E-07 11034   0.148E-03    0.212E-03
DAV:  18    -0.544256311226E+03   -0.70570E-04   -0.67665E-07 10924   0.109E-03    0.150E-03
DAV:  19    -0.544256352340E+03   -0.41115E-04   -0.51262E-07 10574   0.973E-04    0.102E-03
DAV:  20    -0.544256366155E+03   -0.13814E-04   -0.13503E-07 10570   0.482E-04    0.979E-04
DAV:  21    -0.544256378546E+03   -0.12392E-04   -0.10691E-07 10096   0.373E-04    0.687E-04
DAV:  22    -0.544256393216E+03   -0.14670E-04   -0.86624E-08 10080   0.252E-04    0.516E-04
DAV:  23    -0.544256404459E+03   -0.11243E-04   -0.41189E-08  9960   0.216E-04    0.483E-04
DAV:  24    -0.544256416546E+03   -0.12088E-04   -0.42152E-08 10036   0.190E-04    0.447E-04
DAV:  25    -0.544256430066E+03   -0.13520E-04   -0.39913E-08  9988   0.149E-04    0.416E-04
DAV:  26    -0.544256437107E+03   -0.70407E-05   -0.18352E-08 10004   0.114E-04    0.406E-04
DAV:  27    -0.544256446725E+03   -0.96181E-05   -0.20405E-08  9960   0.111E-04    0.383E-04
DAV:  28    -0.544256454555E+03   -0.78301E-05   -0.27029E-08 10050   0.942E-05    0.378E-04
DAV:  29    -0.544256456747E+03   -0.21916E-05   -0.97759E-09  9986   0.749E-05    0.374E-04
DAV:  30    -0.544256457449E+03   -0.70210E-06   -0.47399E-09  9724   0.497E-05
   4 F= -.57078508E+03 E0= -.57076379E+03  d E =-.878394E-02  mag=    14.7370
       N       E                     dE             d eps       ncg     rms          rms(c)
DAV:   1    -0.544255980541E+03    0.47621E-03   -0.26853E-02 19846   0.444E-01    0.384E-02
DAV:   2    -0.544256292788E+03   -0.31225E-03   -0.33080E-03 15436   0.818E-02    0.546E-02
DAV:   3    -0.544256311216E+03   -0.18427E-04   -0.44892E-04 15686   0.422E-02    0.647E-02
DAV:   4    -0.544256263169E+03    0.48047E-04   -0.19615E-04 15452   0.304E-02    0.171E-02
DAV:   5    -0.544256269171E+03   -0.60025E-05   -0.17885E-05 14664   0.108E-02    0.134E-02
DAV:   6    -0.544256271894E+03   -0.27228E-05   -0.76364E-06 14120   0.703E-03    0.797E-03
DAV:   7    -0.544256270769E+03    0.11249E-05   -0.34539E-06 11460   0.613E-03    0.331E-03
DAV:   8    -0.544256269951E+03    0.81840E-06   -0.81603E-07  9778   0.212E-03
   5 F= -.57078512E+03 E0= -.57076383E+03  d E =-.882051E-02  mag=    14.7378
       N       E                     dE             d eps       ncg     rms          rms(c)
DAV:   1    -0.544219139558E+03    0.37131E-01   -0.32372E+00 18564   0.477E+00    0.396E-01
DAV:   2    -0.544267263931E+03   -0.48124E-01   -0.50372E-01 15552   0.927E-01    0.736E-01
DAV:   3    -0.544264962826E+03    0.23011E-02   -0.72569E-02 15658   0.490E-01    0.619E-01
DAV:   4    -0.544261281249E+03    0.36816E-02   -0.57150E-03 15478   0.199E-01    0.218E-01
DAV:   5    -0.544261006895E+03    0.27435E-03   -0.84777E-04 15790   0.828E-02    0.161E-01
DAV:   6    -0.544260943544E+03    0.63352E-04   -0.26878E-03 16020   0.127E-01    0.144E-01
DAV:   7    -0.544260637945E+03    0.30560E-03   -0.81616E-04 15734   0.709E-02    0.633E-02
DAV:   8    -0.544260574825E+03    0.63121E-04   -0.88497E-05 16138   0.205E-02    0.232E-02
DAV:   9    -0.544260546250E+03    0.28574E-04   -0.34969E-05 15258   0.138E-02    0.111E-02
DAV:  10    -0.544260527718E+03    0.18532E-04   -0.53896E-06 13884   0.653E-03    0.736E-03
DAV:  11    -0.544260516726E+03    0.10992E-04   -0.24102E-06 10848   0.340E-03    0.818E-03
DAV:  12    -0.544260509082E+03    0.76434E-05   -0.14859E-06 10100   0.248E-03    0.448E-03
DAV:  13    -0.544260511099E+03   -0.20170E-05   -0.54025E-07  9966   0.170E-03    0.377E-03
DAV:  14    -0.544260527486E+03   -0.16386E-04   -0.37194E-07 10148   0.129E-03    0.299E-03
DAV:  15    -0.544260568383E+03   -0.40898E-04   -0.38848E-07 10316   0.104E-03    0.272E-03
DAV:  16    -0.544260605930E+03   -0.37547E-04   -0.36867E-07 10346   0.115E-03    0.247E-03
DAV:  17    -0.544260670295E+03   -0.64364E-04   -0.11058E-06 11046   0.106E-03    0.169E-03
DAV:  18    -0.544260694775E+03   -0.24480E-04   -0.37916E-07 10618   0.967E-04    0.109E-03
DAV:  19    -0.544260706920E+03   -0.12145E-04   -0.13129E-07 10376   0.601E-04    0.996E-04
DAV:  20    -0.544260724857E+03   -0.17937E-04   -0.12845E-07 10064   0.373E-04    0.918E-04
DAV:  21    -0.544260736136E+03   -0.11279E-04   -0.55472E-08 10012   0.336E-04    0.676E-04
DAV:  22    -0.544260746205E+03   -0.10069E-04   -0.33839E-08  9716   0.224E-04    0.533E-04
DAV:  23    -0.544260759491E+03   -0.13286E-04   -0.33691E-08  9860   0.162E-04    0.505E-04
DAV:  24    -0.544260771868E+03   -0.12376E-04   -0.31344E-08 10028   0.157E-04    0.470E-04
DAV:  25    -0.544260783825E+03   -0.11957E-04   -0.28444E-08  9956   0.134E-04    0.447E-04
DAV:  26    -0.544260792095E+03   -0.82700E-05   -0.16881E-08 10036   0.114E-04    0.437E-04
DAV:  27    -0.544260800337E+03   -0.82423E-05   -0.19000E-08 10020   0.101E-04    0.423E-04
DAV:  28    -0.544260805448E+03   -0.51105E-05   -0.16758E-08  9922   0.795E-05    0.421E-04
DAV:  29    -0.544260807057E+03   -0.16097E-05   -0.73640E-09  9834   0.592E-05    0.417E-04
DAV:  30    -0.544260807703E+03   -0.64587E-06   -0.42794E-09  9700   0.426E-05
   6 F= -.57079064E+03 E0= -.57076936E+03  d E =-.551418E-02  mag=    14.7086
       N       E                     dE             d eps       ncg     rms          rms(c)
DAV:   1    -0.544189687020E+03    0.71120E-01   -0.56169E+00 18580   0.631E+00    0.521E-01
DAV:   2    -0.544273239539E+03   -0.83553E-01   -0.87319E-01 15656   0.121E+00    0.968E-01
DAV:   3    -0.544269382739E+03    0.38568E-02   -0.12298E-01 15628   0.639E-01    0.818E-01
DAV:   4    -0.544262958105E+03    0.64246E-02   -0.10318E-02 15530   0.261E-01    0.290E-01
DAV:   5    -0.544262451367E+03    0.50674E-03   -0.14807E-03 15750   0.109E-01    0.213E-01
DAV:   6    -0.544262276932E+03    0.17443E-03   -0.27761E-03 16006   0.161E-01    0.186E-01
DAV:   7    -0.544261760633E+03    0.51630E-03   -0.13559E-03 15906   0.914E-02    0.830E-02
DAV:   8    -0.544261660501E+03    0.10013E-03   -0.14107E-04 16058   0.266E-02    0.326E-02
DAV:   9    -0.544261612857E+03    0.47644E-04   -0.61000E-05 15514   0.180E-02    0.149E-02
DAV:  10    -0.544261585789E+03    0.27068E-04   -0.94756E-06 14602   0.858E-03    0.911E-03
DAV:  11    -0.544261565940E+03    0.19849E-04   -0.25848E-06 12108   0.405E-03    0.657E-03
DAV:  12    -0.544261567992E+03   -0.20517E-05   -0.12811E-06 10380   0.285E-03    0.595E-03
DAV:  13    -0.544261585886E+03   -0.17894E-04   -0.97768E-07 10192   0.191E-03    0.574E-03
DAV:  14    -0.544261612231E+03   -0.26345E-04   -0.62633E-07 10180   0.156E-03    0.418E-03
DAV:  15    -0.544261694782E+03   -0.82552E-04   -0.89887E-07 10792   0.117E-03    0.311E-03
DAV:  16    -0.544261804034E+03   -0.10925E-03   -0.16398E-06 11574   0.165E-03    0.330E-03
DAV:  17    -0.544261855873E+03   -0.51839E-04   -0.78323E-07 10842   0.145E-03    0.199E-03
DAV:  18    -0.544261891619E+03   -0.35746E-04   -0.60738E-07 10778   0.999E-04    0.133E-03
DAV:  19    -0.544261908010E+03   -0.16391E-04   -0.13887E-07 10416   0.666E-04    0.127E-03
DAV:  20    -0.544261936993E+03   -0.28983E-04   -0.21029E-07 10186   0.457E-04    0.111E-03
DAV:  21    -0.544261957261E+03   -0.20268E-04   -0.85729E-08 10160   0.382E-04    0.757E-04
DAV:  22    -0.544261971266E+03   -0.14005E-04   -0.44396E-08  9806   0.274E-04    0.638E-04
DAV:  23    -0.544261992324E+03   -0.21058E-04   -0.51616E-08  9992   0.203E-04    0.585E-04
DAV:  24    -0.544262012048E+03   -0.19724E-04   -0.54483E-08  9948   0.210E-04    0.536E-04
DAV:  25    -0.544262030414E+03   -0.18366E-04   -0.48262E-08 10156   0.181E-04    0.494E-04
DAV:  26    -0.544262045786E+03   -0.15372E-04   -0.35478E-08 10020   0.164E-04    0.477E-04
DAV:  27    -0.544262054707E+03   -0.89207E-05   -0.24037E-08 10084   0.135E-04    0.458E-04
DAV:  28    -0.544262062087E+03   -0.73805E-05   -0.23691E-08  9946   0.100E-04    0.455E-04
DAV:  29    -0.544262064672E+03   -0.25845E-05   -0.13125E-08  9996   0.783E-05    0.455E-04
DAV:  30    -0.544262065485E+03   -0.81293E-06   -0.65591E-09  9788   0.579E-05
   7 F= -.57079317E+03 E0= -.57077191E+03  d E =-.805190E-02  mag=    14.6680
