 vasp.6.4.3 19Mar24 (build Nov 27 2025 15:18:09) complex                         
 executed on              LinuxNV date 2026.06.13  16:35:35
 running    1 mpi-ranks, with    4 threads/rank, on    1 nodes
 distrk:  each k-point on    1 cores,    1 groups
 distr:  one band on NCORE=   1 cores,    1 groups
 OpenACC runtime initialized ...    1 GPUs detected


--------------------------------------------------------------------------------------------------------


 INCAR:
   SYSTEM = pddmc
   ENCUT = 520
   PREC = Accurate
   LASPH = .TRUE.
   ADDGRID = .TRUE.
   ISPIN = 2
   IVDW = 12
   EDIFF = 1e-06
   NELM = 500
   NELMIN = 5
   ALGO = Normal
   NCORE = 1
   LREAL = Auto
   LWAVE = .FALSE.
   LCHARG = .FALSE.
   LORBIT = 11
   ISYM = 0
   IBRION = 2
   NSW = 300
   ISIF = 2
   ISMEAR = 0
   SIGMA = 0.05
   EDIFFG = -0.03
   LDIPOL = .TRUE.
   IDIPOL = 3
   KSPACING = 0.25

 POTCAR:    PAW_PBE O 08Apr2002                   
 POTCAR:    PAW_PBE Pd_pv 28Jan2005               
 -----------------------------------------------------------------------------
|                                                                             |
|           W    W    AA    RRRRR   N    N  II  N    N   GGGG   !!!           |
|           W    W   A  A   R    R  NN   N  II  NN   N  G    G  !!!           |
|           W    W  A    A  R    R  N N  N  II  N N  N  G       !!!           |
|           W WW W  AAAAAA  RRRRR   N  N N  II  N  N N  G  GGG   !            |
|           WW  WW  A    A  R   R   N   NN  II  N   NN  G    G                |
|           W    W  A    A  R    R  N    N  II  N    N   GGGG   !!!           |
|                                                                             |
|     You use a magnetic or noncollinear calculation, but did not specify     |
|     the initial magnetic moment with the MAGMOM tag. Note that a            |
|     default of 1 will be used for all atoms. This ferromagnetic setup       |
|     may break the symmetry of the crystal, in particular it may rule        |
|     out finding an antiferromagnetic solution. Thence, we recommend         |
|     setting the initial magnetic moment manually or verifying carefully     |
|     that this magnetic setup is desired.                                    |
|                                                                             |
 -----------------------------------------------------------------------------

 POTCAR:    PAW_PBE O 08Apr2002                   
   SHA256 =  818f92134a0a090dccd8ba1447fa70422a3b330e708bb4f08108d8ae51209ddf O/POTCAR              
   COPYR  = (c) Copyright 08Apr2002 Georg Kresse                                                    
   COPYR  = This file is part of the software VASP. Any use, copying, and all other rights are regul
   COPYR  = If you do not have a valid VASP license, you may not use, copy or distribute this file. 
   VRHFIN =O: s2p4                                                                                  
   LEXCH  = PE                                                                                      
   EATOM  =   432.3788 eV,   31.7789 Ry                                                             
                                                                                                    
   TITEL  = PAW_PBE O 08Apr2002                                                                     
   LULTRA =        F    use ultrasoft PP ?                                                          
   IUNSCR =        1    unscreen: 0-lin 1-nonlin 2-no                                               
   RPACOR =    1.200    partial core radius                                                         
   POMASS =   16.000; ZVAL   =    6.000    mass and valenz                                          
   RCORE  =    1.520    outmost cutoff radius                                                       
   RWIGS  =    1.550; RWIGS  =    0.820    wigner-seitz radius (au A)                               
   ENMAX  =  400.000; ENMIN  =  300.000 eV                                                          
   ICORE  =        2    local potential                                                             
   LCOR   =        T    correct aug charges                                                         
   LPAW   =        T    paw PP                                                                      
   EAUG   =  605.392                                                                                
   DEXC   =    0.000                                                                                
   RMAX   =    1.553    core radius for proj-oper                                                   
   RAUG   =    1.300    factor for augmentation sphere                                              
   RDEP   =    1.550    radius for radial grids                                                     
   RDEPT  =    1.329    core radius for aug-charge                                                  
                                                                                                    
   Atomic configuration                                                                             
    4 entries                                                                                       
     n  l   j            E        occ.                                                              
     1  0  0.50      -514.6923   2.0000                                                             
     2  0  0.50       -23.9615   2.0000                                                             
     2  1  0.50        -9.0305   4.0000                                                             
     3  2  1.50        -9.5241   0.0000                                                             
   Description                                                                                      
     l       E           TYP  RCUT    TYP  RCUT                                                     
     0    -23.9615318     23  1.200                                                                 
     0     -9.5240782     23  1.200                                                                 
     1     -9.0304911     23  1.520                                                                 
     1      8.1634956     23  1.520                                                                 
     2     -9.5240782      7  1.500                                                                 
  local pseudopotential read in
  partial core-charges read in
  partial kinetic energy density read in
  kinetic energy density of atom read in
  atomic valenz-charges read in
  non local Contribution for L=            0  read in
    real space projection operators read in
  non local Contribution for L=            0  read in
    real space projection operators read in
  non local Contribution for L=            1  read in
    real space projection operators read in
  non local Contribution for L=            1  read in
    real space projection operators read in
    PAW grid and wavefunctions read in
 
   number of l-projection  operators is LMAX  =            4
   number of lm-projection operators is LMMAX =            8
 
 POTCAR:    PAW_PBE Pd_pv 28Jan2005               
   SHA256 =  3ce661545bbde58da9a95410dea32907db2844916708bcd35bbe03ee66324d7f Pd_pv/POTCAR          
   COPYR  = (c) Copyright 28Jan2005 Georg Kresse                                                    
   COPYR  = This file is part of the software VASP. Any use, copying, and all other rights are regul
   COPYR  = If you do not have a valid VASP license, you may not use, copy or distribute this file. 
   VRHFIN =Pd: 4p5s4d                                                                               
   LEXCH  = PE                                                                                      
   EATOM  =  2621.5550 eV,  192.6789 Ry                                                             
                                                                                                    
   TITEL  = PAW_PBE Pd_pv 28Jan2005                                                                 
   LULTRA =        F    use ultrasoft PP ?                                                          
   IUNSCR =        1    unscreen: 0-lin 1-nonlin 2-no                                               
   RPACOR =    2.250    partial core radius                                                         
   POMASS =  106.420; ZVAL   =   16.000    mass and valenz                                          
   RCORE  =    2.400    outmost cutoff radius                                                       
   RWIGS  =    2.300; RWIGS  =    1.217    wigner-seitz radius (au A)                               
   ENMAX  =  250.925; ENMIN  =  188.194 eV                                                          
   ICORE  =        3    local potential                                                             
   LCOR   =        T    correct aug charges                                                         
   LPAW   =        T    paw PP                                                                      
   EAUG   =  473.067                                                                                
   DEXC   =    0.000                                                                                
   RMAX   =    2.449    core radius for proj-oper                                                   
   RAUG   =    1.300    factor for augmentation sphere                                              
   RDEP   =    2.405    radius for radial grids                                                     
   RDEPT  =    1.966    core radius for aug-charge                                                  
                                                                                                    
   Atomic configuration                                                                             
   11 entries                                                                                       
     n  l   j            E        occ.                                                              
     1  0  0.50    -24164.6632   2.0000                                                             
     2  0  0.50     -3530.9218   2.0000                                                             
     2  1  1.50     -3165.6822   6.0000                                                             
     3  0  0.50      -639.4578   2.0000                                                             
     3  1  1.50      -519.4532   6.0000                                                             
     3  2  2.50      -328.9758  10.0000                                                             
     4  0  0.50       -88.7014   2.0000                                                             
     4  1  1.50       -54.4541   6.0000                                                             
     4  2  2.50        -6.6878   9.0000                                                             
     5  0  0.50        -4.3543   1.0000                                                             
     4  3  2.50        -1.3606   0.0000                                                             
   Description                                                                                      
     l       E           TYP  RCUT    TYP  RCUT                                                     
     1    -54.4540524     23  2.100                                                                 
     1      4.0817478     23  2.100                                                                 
     2     -6.6878326     23  2.400                                                                 
     2     -4.0817478     23  2.400                                                                 
     0     -4.3542962     23  2.400                                                                 
     0     13.6058260     23  2.400                                                                 
     3     -5.4423304     23  2.400                                                                 
  local pseudopotential read in
  partial core-charges read in
  partial kinetic energy density read in
  atomic valenz-charges read in
  non local Contribution for L=            1  read in
    real space projection operators read in
  non local Contribution for L=            1  read in
    real space projection operators read in
  non local Contribution for L=            2  read in
    real space projection operators read in
  non local Contribution for L=            2  read in
    real space projection operators read in
  non local Contribution for L=            0  read in
    real space projection operators read in
  non local Contribution for L=            0  read in
    real space projection operators read in
    PAW grid and wavefunctions read in
 
   number of l-projection  operators is LMAX  =            6
   number of lm-projection operators is LMMAX =           18
 
 Optimization of the real space projectors (new method)

 maximal supplied QI-value         = 24.76
 optimisation between [QCUT,QGAM] = [ 11.64, 23.27] = [ 37.91,151.63] Ry 
 Optimized for a Real-space Cutoff    1.14 Angstroem

   l    n(q)    QCUT    max X(q) W(low)/X(q) W(high)/X(q)  e(spline) 
   0      8    11.635    20.381    0.10E-03    0.33E-03    0.24E-06
   0      8    11.635    15.268    0.11E-03    0.35E-03    0.26E-06
   1      7    11.635     5.964    0.24E-03    0.31E-03    0.30E-06
   1      7    11.635     5.382    0.22E-03    0.25E-03    0.26E-06
 Optimization of the real space projectors (new method)

 maximal supplied QI-value         = 15.68
 optimisation between [QCUT,QGAM] = [ 11.61, 23.21] = [ 37.72,150.90] Ry 
 Optimized for a Real-space Cutoff    1.40 Angstroem

   l    n(q)    QCUT    max X(q) W(low)/X(q) W(high)/X(q)  e(spline) 
   1      9    11.607     3.357    0.46E-04    0.85E-04    0.15E-06
   1      9    11.607     4.938    0.68E-04    0.21E-03    0.32E-06
   2      9    11.607    23.508    0.23E-03    0.17E-03    0.29E-06
   2      9    11.607    23.349    0.22E-03    0.16E-03    0.28E-06
   0     10    11.607    49.920    0.59E-04    0.74E-04    0.17E-06
   0     10    11.607    23.997    0.53E-04    0.66E-04    0.15E-06
  PAW_PBE O 08Apr2002                   :
 energy of atom  1       EATOM= -432.3788
 kinetic energy error for atom=    0.0208 (will be added to EATOM!!)
  PAW_PBE Pd_pv 28Jan2005               :
 energy of atom  2       EATOM=-2621.5550
 kinetic energy error for atom=    0.0088 (will be added to EATOM!!)
 
 
 POSCAR: O  Pd
  positions in cartesian coordinates
  velocities in cartesian coordinates
 IVDW         = 12
 VDW_S6       =    1.0000
 VDW_S8       =    0.7875
 VDW_A1       =    0.4289
 VDW_A2       =    4.4407
 VDW_RADIUS   =   50.2022 A
 VDW_CNRADIUS =   21.1671 A


 exchange-correlation table for PE
   RHO(1)=    0.500       N(1)  =     2000
   RHO(2)=  100.500       N(2)  =     4000
 


--------------------------------------------------------------------------------------------------------


 ion  position               nearest neighbor table
   1  0.500  0.125  0.313-  70 2.03 100 2.04  69 2.04  67 2.09
   2  0.750  0.375  0.103-  64 2.04  98 2.04  76 2.04  84 2.05
   3  0.500  0.625  0.313-  60 2.03 102 2.04  75 2.04  94 2.09
   4  0.500  0.875  0.313-  60 2.03 100 2.04  69 2.04  94 2.09
   5  0.750  0.375  0.313-  89 2.03  83 2.04 102 2.04  93 2.09
   6  0.250  0.125  0.313-  53 2.03  92 2.04 100 2.04  52 2.09
   7  0.000  0.625  0.103-  81 2.04  98 2.04  78 2.04  74 2.05
   8  0.250  0.375  0.313-  53 2.03  68 2.04  75 2.04  52 2.09
   9  0.000  0.875  0.209-  87 2.04  85 2.04  66 2.05  74 2.05
  10  0.000  0.625  0.209-  96 2.04  63 2.04  66 2.05  74 2.05
  11  0.000  0.875  0.313-  66 2.03  92 2.04  90 2.04  71 2.09
  12  0.000  0.125  0.313-  95 2.03  92 2.04  90 2.04  99 2.09
  13  1.000  0.375  0.313-  95 2.03  83 2.04  68 2.04  99 2.09
  14  0.000  0.125  0.209-  87 2.04  85 2.04  95 2.05  91 2.05
  15  0.000  0.375  0.209-  63 2.04  96 2.04  95 2.05  91 2.05
  16  0.250  0.375  0.103-  81 2.04  55 2.04  54 2.04  49 2.05
  17  0.000  0.875  0.103-  82 2.04  80 2.04  78 2.04  74 2.05
  18  0.250  0.375  0.209-  63 2.04  57 2.04  53 2.05  49 2.05
  19  0.250  0.125  0.103- 103 2.04  80 2.04  54 2.04  49 2.05
  20  0.250  0.125  0.209-  87 2.04  56 2.04  53 2.05  49 2.05
  21  0.000  0.375  0.103-  98 2.04  81 2.04 104 2.04  91 2.05
  22  0.000  0.125  0.103-  80 2.04  82 2.04 104 2.04  91 2.05
  23  0.750  0.125  0.103-  82 2.04  58 2.04  76 2.04  84 2.05
  24  0.750  0.375  0.209-  96 2.04 101 2.04  89 2.05  84 2.05
  25  0.000  0.625  0.313-  66 2.03  83 2.04  68 2.04  71 2.09
  26  0.750  0.125  0.313-  89 2.03  90 2.04  69 2.04  93 2.09
  27  0.750  0.125  0.209-  85 2.04  61 2.04  89 2.05  84 2.05
  28  0.500  0.375  0.313-  70 2.03 102 2.04  75 2.04  67 2.09
  29  0.500  0.125  0.209-  56 2.04  61 2.04  70 2.05  72 2.05
  30  0.500  0.375  0.209-  57 2.04 101 2.04  70 2.05  72 2.05
  31  0.500  0.125  0.103-  58 2.04 103 2.04  50 2.04  72 2.05
  32  0.500  0.375  0.103-  55 2.04  64 2.04  50 2.04  72 2.05
  33  0.250  0.875  0.313-  73 2.03  92 2.04 100 2.04  77 2.09
  34  0.250  0.625  0.209-  63 2.04  57 2.04  73 2.05  51 2.05
  35  0.250  0.875  0.209-  87 2.04  56 2.04  73 2.05  51 2.05
  36  0.250  0.625  0.103-  55 2.04  81 2.04  59 2.04  51 2.05
  37  0.250  0.625  0.313-  73 2.03  68 2.04  75 2.04  77 2.09
  38  0.500  0.875  0.103- 103 2.04  58 2.04  65 2.04  62 2.05
  39  0.500  0.625  0.103-  64 2.04  55 2.04  65 2.04  62 2.05
  40  0.500  0.875  0.209-  56 2.04  61 2.04  60 2.05  62 2.05
  41  0.500  0.625  0.209- 101 2.04  57 2.04  60 2.05  62 2.05
  42  0.750  0.625  0.313-  88 2.03  83 2.04 102 2.04  79 2.09
  43  0.750  0.875  0.313-  88 2.03  90 2.04  69 2.04  79 2.09
  44  0.750  0.625  0.209-  96 2.04 101 2.04  88 2.05  86 2.05
  45  0.750  0.875  0.209-  61 2.04  85 2.04  88 2.05  86 2.05
  46  0.750  0.625  0.103-  98 2.04  64 2.04  97 2.04  86 2.05
  47  0.250  0.875  0.103-  80 2.04 103 2.04  59 2.04  51 2.05
  48  0.750  0.875  0.103-  58 2.04  82 2.04  97 2.04  86 2.05
  49  0.250  0.250  0.156-  16 2.05  19 2.05  18 2.05  20 2.05
  50  0.500  0.250  0.051-  31 2.04  32 2.04
  51  0.250  0.750  0.156-  36 2.05  47 2.05  34 2.05  35 2.05
  52  0.250  0.250  0.368-   6 2.09   8 2.09
  53  0.250  0.250  0.261-   8 2.03   6 2.03  18 2.05  20 2.05
  54  0.250  0.250  0.051-  16 2.04  19 2.04
  55  0.375  0.500  0.103-  32 2.04  36 2.04  16 2.04  39 2.04
  56  0.375  1.000  0.209-  40 2.04  29 2.04  35 2.04  20 2.04
  57  0.375  0.500  0.209-  30 2.04  41 2.04  34 2.04  18 2.04
  58  0.625  0.000  0.103-  31 2.04  48 2.04  38 2.04  23 2.04
  59  0.250  0.750  0.051-  36 2.04  47 2.04
  60  0.500  0.750  0.261-   3 2.03   4 2.03  40 2.05  41 2.05
  61  0.625  1.000  0.209-  45 2.04  27 2.04  40 2.04  29 2.04
  62  0.500  0.750  0.156-  39 2.05  38 2.05  41 2.05  40 2.05
  63  0.125  0.500  0.209-  18 2.04  15 2.04  34 2.04  10 2.04
  64  0.625  0.500  0.103-   2 2.04  39 2.04  32 2.04  46 2.04
  65  0.500  0.750  0.051-  38 2.04  39 2.04
  66  0.000  0.750  0.261-  11 2.03  25 2.03   9 2.05  10 2.05
  67  0.500  0.250  0.368-  28 2.09   1 2.09
  68  0.125  0.500  0.312-  37 2.04   8 2.04  25 2.04  13 2.04
  69  0.625  0.000  0.312-   1 2.04   4 2.04  26 2.04  43 2.04
  70  0.500  0.250  0.261-   1 2.03  28 2.03  29 2.05  30 2.05
  71  1.000  0.750  0.368-  11 2.09  25 2.09
  72  0.500  0.250  0.156-  32 2.05  31 2.05  30 2.05  29 2.05
  73  0.250  0.750  0.261-  33 2.03  37 2.03  34 2.05  35 2.05
  74  0.000  0.750  0.156-   7 2.05  17 2.05  10 2.05   9 2.05
  75  0.375  0.500  0.312-  28 2.04   3 2.04   8 2.04  37 2.04
  76  0.750  0.250  0.051-   2 2.04  23 2.04
  77  0.250  0.750  0.368-  33 2.09  37 2.09
  78  0.000  0.750  0.051-   7 2.04  17 2.04
  79  0.750  0.750  0.368-  43 2.09  42 2.09
  80  0.125  0.000  0.103-  22 2.04  47 2.04  17 2.04  19 2.04
  81  0.125  0.500  0.103-   7 2.04  16 2.04  21 2.04  36 2.04
  82  0.875  0.000  0.103-  17 2.04  23 2.04  22 2.04  48 2.04
  83  0.875  0.500  0.312-  13 2.04   5 2.04  42 2.04  25 2.04
  84  0.750  0.250  0.156-   2 2.05  23 2.05  24 2.05  27 2.05
  85  0.875  1.000  0.209-  45 2.04  27 2.04   9 2.04  14 2.04
  86  0.750  0.750  0.156-  46 2.05  48 2.05  45 2.05  44 2.05
  87  0.125  0.000  0.209-   9 2.04  14 2.04  35 2.04  20 2.04
  88  0.750  0.750  0.261-  43 2.03  42 2.03  45 2.05  44 2.05
  89  0.750  0.250  0.261-  26 2.03   5 2.03  27 2.05  24 2.05
  90  0.875  0.000  0.312-  26 2.04  43 2.04  12 2.04  11 2.04
  91  0.000  0.250  0.156-  21 2.05  22 2.05  15 2.05  14 2.05
  92  0.125  1.000  0.312-  11 2.04  12 2.04  33 2.04   6 2.04
  93  0.750  0.250  0.368-   5 2.09  26 2.09
  94  0.500  0.750  0.368-   4 2.09   3 2.09
  95  0.000  0.250  0.261-  12 2.03  13 2.03  14 2.05  15 2.05
  96  0.875  0.500  0.209-  44 2.04  24 2.04  10 2.04  15 2.04
  97  0.750  0.750  0.051-  46 2.04  48 2.04
  98  0.875  0.500  0.103-  21 2.04  46 2.04   2 2.04   7 2.04
  99  1.000  0.250  0.368-  12 2.09  13 2.09
 100  0.375  0.000  0.312-   1 2.04   4 2.04   6 2.04  33 2.04
 101  0.625  0.500  0.209-  41 2.04  44 2.04  30 2.04  24 2.04
 102  0.625  0.500  0.312-  28 2.04   3 2.04   5 2.04  42 2.04
 103  0.375  0.000  0.103-  19 2.04  38 2.04  31 2.04  47 2.04
 104  0.000  0.250  0.051-  21 2.04  22 2.04
 

IMPORTANT INFORMATION: All symmetrisations will be switched off!
NOSYMM: (Re-)initialisation of all symmetry stuff for point group C_1.


----------------------------------------------------------------------------------------

                                     Primitive cell                                     

  volume of cell :    3862.7411

  direct lattice vectors                    reciprocal lattice vectors
    12.214370837  0.000000000  0.000000000     0.081870774 -0.000000000  0.000000000
     0.000000000 10.811692247  0.000000000     0.000000000  0.092492459  0.000000000
     0.000000000  0.000000000 29.250333490    -0.000000000 -0.000000000  0.034187644

  length of vectors
    12.214370837 10.811692247 29.250333490     0.081870774  0.092492459  0.034187644

  position of ions in fractional coordinates (direct lattice)
     0.499999359  0.125156388  0.313076047
     0.750000000  0.375000000  0.103479037
     0.499999524  0.625157638  0.313076392
     0.499999148  0.874843650  0.313076277
     0.750000526  0.374843669  0.313076199
     0.249998593  0.125157710  0.313076647
     1.000000000  0.625000000  0.103479037
     0.249999097  0.374842213  0.313076515
     0.000000779  0.874636663  0.208818655
     0.000000149  0.625364183  0.208818457
     0.000000278  0.874842444  0.313076138
     0.000000131  0.125157837  0.313076028
     0.999998748  0.374841936  0.313076076
     0.000000367  0.125363975  0.208818571
     0.000000271  0.374636082  0.208818539
     0.250000000  0.375000000  0.103479037
     1.000000000  0.875000000  0.103479037
     0.249999864  0.374635451  0.208819077
     0.250000000  0.125000000  0.103479037
     0.250000312  0.125364374  0.208818797
     1.000000000  0.375000000  0.103479037
     1.000000000  0.125000000  0.103479037
     0.750000000  0.125000000  0.103479037
     0.750000498  0.374636091  0.208818203
     0.000000014  0.625156799  0.313076229
     0.750000904  0.125157387  0.313075863
     0.750000011  0.125363365  0.208818628
     0.500001161  0.374844845  0.313076292
     0.499999837  0.125363753  0.208818781
     0.499999994  0.374636087  0.208818529
     0.500000000  0.125000000  0.103479037
     0.500000000  0.375000000  0.103479037
     0.249998337  0.874842111  0.313076503
     0.250000058  0.625364636  0.208818809
     0.250000073  0.874635924  0.208818849
     0.250000000  0.625000000  0.103479037
     0.249997855  0.625156921  0.313076701
     0.500000000  0.875000000  0.103479037
     0.500000000  0.625000000  0.103479037
     0.499999579  0.874635497  0.208818629
     0.500000178  0.625363752  0.208818899
     0.750002155  0.625158098  0.313076383
     0.750001445  0.874842632  0.313076035
     0.750000213  0.625363316  0.208818754
     0.750000201  0.874634390  0.208818639
     0.750000000  0.625000000  0.103479037
     0.250000000  0.875000000  0.103479037
     0.750000000  0.875000000  0.103479037
     0.250000183  0.250000479  0.156087342
     0.500000000  0.250000000  0.051281467
     0.250000244  0.749999837  0.156087063
     0.249998617  0.249995679  0.367528579
     0.249999576  0.249999963  0.261457741
     0.250000000  0.250000000  0.051281467
     0.375000000  0.500000000  0.103479037
     0.375001309  0.999999643  0.209111531
     0.375000486  0.500000025  0.209111773
     0.625000000  0.000000000  0.103479037
     0.250000000  0.750000000  0.051281467
     0.499999542  0.750000047  0.261457272
     0.625001151  0.999998434  0.209111305
     0.500000089  0.749999106  0.156086757
     0.125000501  0.499999662  0.209111644
     0.625000000  0.500000000  0.103479037
     0.500000000  0.750000000  0.051281467
     0.000000714  0.750000611  0.261456590
     0.500000115  0.250000582  0.367526025
     0.125000758  0.499999810  0.312062654
     0.624999423  0.000001149  0.312062207
     0.500000104  0.249999100  0.261456750
     0.999999565  0.750001409  0.367526628
     0.500000041  0.250000200  0.156086673
     0.249999183  0.750000075  0.261457252
     0.000000064  0.749999706  0.156087065
     0.374999392  0.499999927  0.312062850
     0.750000000  0.250000000  0.051281467
     0.249999207  0.749999832  0.367526575
     1.000000000  0.750000000  0.051281467
     0.750001501  0.750001837  0.367528239
     0.125000000  0.000000000  0.103479037
     0.125000000  0.500000000  0.103479037
     0.875000000  0.000000000  0.103479037
     0.875000486  0.499999639  0.312062155
     0.750000071  0.250000133  0.156087006
     0.874999044  0.999998873  0.209111345
     0.749999970  0.749998787  0.156086906
     0.124999215  0.000000062  0.209111562
     0.750001142  0.750000973  0.261457657
     0.749999277  0.249998536  0.261456442
     0.874999407  0.000001061  0.312062134
     0.000000110  0.250000369  0.156087328
     0.124998427  0.999998932  0.312062386
     0.750000056  0.250001528  0.367525631
     0.500000593  0.750003047  0.367528120
     0.000000112  0.249999321  0.261456998
     0.874999862  0.500000189  0.209111381
     0.750000000  0.750000000  0.051281467
     0.875000000  0.500000000  0.103479037
     0.999999605  0.249998066  0.367528086
     0.375000842  0.000000287  0.312062456
     0.624999737  0.500000524  0.209111405
     0.624998334  0.500001044  0.312062311
     0.375000000  0.000000000  0.103479037
     1.000000000  0.250000000  0.051281467

  ion indices of the primitive-cell ions
   primitive index   ion index
                 1           1
                 2           2
                 3           3
                 4           4
                 5           5
                 6           6
                 7           7
                 8           8
                 9           9
                10          10
                11          11
                12          12
                13          13
                14          14
                15          15
                16          16
                17          17
                18          18
                19          19
                20          20
                21          21
                22          22
                23          23
                24          24
                25          25
                26          26
                27          27
                28          28
                29          29
                30          30
                31          31
                32          32
                33          33
                34          34
                35          35
                36          36
                37          37
                38          38
                39          39
                40          40
                41          41
                42          42
                43          43
                44          44
                45          45
                46          46
                47          47
                48          48
                49          49
                50          50
                51          51
                52          52
                53          53
                54          54
                55          55
                56          56
                57          57
                58          58
                59          59
                60          60
                61          61
                62          62
                63          63
                64          64
                65          65
                66          66
                67          67
                68          68
                69          69
                70          70
                71          71
                72          72
                73          73
                74          74
                75          75
                76          76
                77          77
                78          78
                79          79
                80          80
                81          81
                82          82
                83          83
                84          84
                85          85
                86          86
                87          87
                88          88
                89          89
                90          90
                91          91
                92          92
                93          93
                94          94
                95          95
                96          96
                97          97
                98          98
                99          99
               100         100
               101         101
               102         102
               103         103
               104         104

----------------------------------------------------------------------------------------

 
 -----------------------------------------------------------------------------
|                                                                             |
|           W    W    AA    RRRRR   N    N  II  N    N   GGGG   !!!           |
|           W    W   A  A   R    R  NN   N  II  NN   N  G    G  !!!           |
|           W    W  A    A  R    R  N N  N  II  N N  N  G       !!!           |
|           W WW W  AAAAAA  RRRRR   N  N N  II  N  N N  G  GGG   !            |
|           WW  WW  A    A  R   R   N   NN  II  N   NN  G    G                |
|           W    W  A    A  R    R  N    N  II  N    N   GGGG   !!!           |
|                                                                             |
|     The requested file  could not be found or opened for reading            |
|     k-point information. Automatic k-point generation is used as a          |
|     fallback, which may lead to unwanted results.                           |
|                                                                             |
 -----------------------------------------------------------------------------

 

Automatic generation of k-mesh.
 Grid dimensions derived from KSPACING:
 generate k-points for:    3    3    1

 Generating k-lattice:

  Cartesian coordinates                     Fractional coordinates (reciprocal lattice)
     0.027290258 -0.000000000  0.000000000     0.333333333  0.000000000  0.000000000
     0.000000000  0.030830820  0.000000000     0.000000000  0.333333333  0.000000000
    -0.000000000 -0.000000000  0.034187644    -0.000000000  0.000000000  1.000000000

  Length of vectors
     0.027290258  0.030830820  0.034187644

  Shift w.r.t. Gamma in fractional coordinates (k-lattice)
     0.000000000  0.000000000  0.000000000

 
 Subroutine IBZKPT returns following result:
 ===========================================
 
 Found      5 irreducible k-points:
 
 Following reciprocal coordinates:
            Coordinates               Weight
  0.000000  0.000000  0.000000      1.000000
  0.333333  0.000000  0.000000      2.000000
  0.000000  0.333333  0.000000      2.000000
  0.333333  0.333333  0.000000      2.000000
 -0.333333  0.333333  0.000000      2.000000
 
 Following cartesian coordinates:
            Coordinates               Weight
  0.000000  0.000000  0.000000      1.000000
  0.027290  0.000000  0.000000      2.000000
  0.000000  0.030831  0.000000      2.000000
  0.027290  0.030831  0.000000      2.000000
 -0.027290  0.030831  0.000000      2.000000
 


--------------------------------------------------------------------------------------------------------




 Dimension of arrays:
   k-points           NKPTS =      5   k-points in BZ     NKDIM =      5   number of bands    NBANDS=    762
   number of dos      NEDOS =    301   number of ions     NIONS =    104
   non local maximal  LDIM  =      6   non local SUM 2l+1 LMDIM =     18
   total plane-waves  NPLWV = ******
   max r-space proj   IRMAX =   5209   max aug-charges    IRDMAX= 142822
   dimension x,y,z NGX =    96 NGY =   80 NGZ =  224
   dimension x,y,z NGXF=   192 NGYF=  160 NGZF=  448
   support grid    NGXF=   384 NGYF=  320 NGZF=  896
   ions per type =              48  56
   NGX,Y,Z   is equivalent  to a cutoff of  13.07, 12.30, 12.73 a.u.
   NGXF,Y,Z  is equivalent  to a cutoff of  26.13, 24.60, 25.46 a.u.

 SYSTEM =  pddmc                                   
 POSCAR =  O  Pd                                   

 Startparameter for this run:
   NWRITE =      2    write-flag & timer
   PREC   = accura    normal or accurate (medium, high low for compatibility)
   ISTART =      0    job   : 0-new  1-cont  2-samecut
   ICHARG =      2    charge: 1-file 2-atom 10-const
   ISPIN  =      2    spin polarized calculation?
   LNONCOLLINEAR =      F non collinear calculations
   LSORBIT =      F    spin-orbit coupling
   INIWAV =      1    electr: 0-lowe 1-rand  2-diag
   LASPH  =      T    aspherical Exc in radial PAW
 Electronic Relaxation 1
   ENCUT  =  520.0 eV  38.22 Ry    6.18 a.u.  22.71 20.10 54.39*2*pi/ulx,y,z
   ENINI  =  520.0     initial cutoff
   ENAUG  =  605.4 eV  augmentation charge cutoff
   NELM   =    500;   NELMIN=  5; NELMDL= -5     # of ELM steps 
   EDIFF  = 0.1E-05   stopping-criterion for ELM
   LREAL  =      T    real-space projection
   NLSPLINE    = F    spline interpolate recip. space projectors
   LCOMPAT=      F    compatible to vasp.4.4
   GGA_COMPAT  = T    GGA compatible to vasp.4.4-vasp.4.6
   LMAXPAW     = -100 max onsite density
   LMAXMIX     =    2 max onsite mixed and CHGCAR
   VOSKOWN=      0    Vosko Wilk Nusair interpolation
   ROPT   =   -0.00025  -0.00025
 Ionic relaxation
   EDIFFG = -.3E-01   stopping-criterion for IOM
   NSW    =    300    number of steps for IOM
   NBLOCK =      1;   KBLOCK =    300    inner block; outer block 
   IBRION =      2    ionic relax: 0-MD 1-quasi-New 2-CG
   NFREE  =      1    steps in history (QN), initial steepest desc. (CG)
   ISIF   =      2    stress and relaxation
   IWAVPR =     11    prediction:  0-non 1-charg 2-wave 3-comb
   ISYM   =      0    0-nonsym 1-usesym 2-fastsym
   LCORR  =      T    Harris-Foulkes like correction to forces

   POTIM  = 0.5000    time-step for ionic-motion
   TEIN   =    0.0    initial temperature
   TEBEG  =    0.0;   TEEND  =   0.0 temperature during run
   SMASS  =  -3.00    Nose mass-parameter (am)
   estimated Nose-frequenzy (Omega)   =  0.10E-29 period in steps = 0.13E+47 mass=  -0.341E-26a.u.
   SCALEE = 1.0000    scale energy and forces
   NPACO  =    256;   APACO  = 10.0  distance and # of slots for P.C.
   PSTRESS=    0.0 pullay stress

  Mass of Ions in am
   POMASS =  16.00106.42
  Ionic Valenz
   ZVAL   =   6.00 16.00
  Atomic Wigner-Seitz radii
   RWIGS  =  -1.00 -1.00
  virtual crystal weights 
   VCA    =   1.00  1.00
   NELECT =    1184.0000    total number of electrons
   NUPDOWN=      -1.0000    fix difference up-down

 DOS related values:
   EMIN   =  10.00;   EMAX   =-10.00  energy-range for DOS
   EFERMI =   0.00;   METHOD = LEGACY      
   ISMEAR =     0;   SIGMA  =   0.05  broadening in eV -4-tet -1-fermi 0-gaus

 Electronic relaxation 2 (details)
   IALGO  =     38    algorithm
   LDIAG  =      T    sub-space diagonalisation (order eigenvalues)
   LSUBROT=      F    optimize rotation matrix (better conditioning)
   TURBO    =      0    0=normal 1=particle mesh
   IRESTART =      0    0=no restart 2=restart with 2 vectors
   NREBOOT  =      0    no. of reboots
   NMIN     =      0    reboot dimension
   EREF     =   0.00    reference energy to select bands
   IMIX   =      4    mixing-type and parameters
     AMIX     =   0.40;   BMIX     =  1.00
     AMIX_MAG =   1.60;   BMIX_MAG =  1.00
     AMIN     =   0.10
     WC   =   100.;   INIMIX=   1;  MIXPRE=   1;  MAXMIX= -45

 Intra band minimization:
   WEIMIN = 0.0010     energy-eigenvalue tresh-hold
   EBREAK =  0.33E-09  absolut break condition
   DEPER  =   0.30     relativ break condition  

   TIME   =   0.40     timestep for ELM

  volume/ion in A,a.u.               =      37.14       250.64
  Fermi-wavevector in a.u.,A,eV,Ry     =   1.103808  2.085895 16.577231  1.218392
  Thomas-Fermi vector in A             =   2.240272
 
 Write flags
   LWAVE        =      F    write WAVECAR
   LDOWNSAMPLE  =      F    k-point downsampling of WAVECAR
   LCHARG       =      F    write CHGCAR
   LVTOT        =      F    write LOCPOT, total local potential
   LVHAR        =      F    write LOCPOT, Hartree potential only
   WRT_POTENTIAL= false  ! write potential to hdf5 file
   LELF         =      F    write electronic localiz. function (ELF)
   LORBIT       =     11    0 simple, 1 ext, 2 COOP (PROOUT), +10 PAW based schemes


 Dipole corrections
   LMONO      =      F    monopole corrections only (constant potential shift)
   LDIPOL     =      T    correct potential (dipole corrections)
   IDIPOL     =      3    1-x, 2-y, 3-z, 4-all directions 
   EPSILON    =  1.0000000 bulk dielectric constant
   LVACPOTAV  =      F  vacuum potentials using an averaging scheme for the charge density
   VACPOTFLAT =  0.1000000 required flatness to determine vacuum potential
 Exchange correlation treatment:
   GGA     = PE    functional components
   XC_C    = 1    coefficients multiplying the functional components
   LIBXC   =     F    Libxc                    
   VOSKOWN =     0    Vosko Wilk Nusair interpolation
   LHFCALC =     F    Hartree Fock is set to
   LHFONE  =     F    Hartree Fock one center treatment
   AEXX    =    0.0000 exact exchange contribution

 Parameters of functionals:
   PE:
     No parameter
 
 Van der Waals corrections
   IVDW    =    12    specifies the selected vdW correction

 Linear response parameters
   LEPSILON=     F    determine dielectric tensor
   LRPA    =     F    only Hartree local field effects (RPA)
   LNABLA  =     F    use nabla operator in PAW spheres
   LVEL    =     F    velocity operator in full k-point grid
   CSHIFT  =0.1000    complex shift for real part using Kramers Kronig
   OMEGAMAX=  -1.0    maximum frequency
   DEG_THRESHOLD= 0.2000000E-02 threshold for treating states as degnerate
   RTIME   =   -0.100 relaxation time in fs
  (WPLASMAI=    0.000 imaginary part of plasma frequency in eV, 0.658/RTIME)
   DFIELD  = 0.0000000 0.0000000 0.0000000 field for delta impulse in time
 
  Optional k-point grid parameters
   LKPOINTS_OPT  =     F    use optional k-point grid
   KPOINTS_OPT_MODE=     1    mode for optional k-point grid
 
 Orbital magnetization related:
   ORBITALMAG=     F  switch on orbital magnetization
   LCHIMAG   =     F  perturbation theory with respect to B field
   DQ        =  0.001000  dq finite difference perturbation B field
   LLRAUG    =     F  two centre corrections for induced B field
   LBONE     =     F  B-component reconstruction in AE one-centre
   LVGVCALC  =     T  calculate vGv susceptibility
   LVGVAPPL  =     F  apply vGv susceptibility instead of pGv for G=0

 Random number generation:
   RANDOM_GENERATOR = DEFAULT
   PCG_SEED         = not used


--------------------------------------------------------------------------------------------------------


 conjugate gradient relaxation of ions
   using selective dynamics as specified on POSCAR
   WARNING: If single coordinates had been selected the selection of coordinates
            is made according to the corresponding   d i r e c t   coordinates!
            Don't support selection of single cartesian coordinates -- sorry ... !
 charge density and potential will be updated during run
 spin polarized calculation
 Variant of blocked Davidson
 Davidson routine will perform the subspace rotation
 perform sub-space diagonalisation
    after iterative eigenvector-optimisation
 modified Broyden-mixing scheme, WC =      100.0
 initial mixing is a Kerker type mixing with AMIX =  0.4000 and BMIX =      1.0000
 Hartree-type preconditioning will be used
 using additional bands           170
 real space projection scheme for non local part
 use partial core corrections
 calculate Harris-corrections to forces 
   (improved forces if not selfconsistent)
 use gradient corrections 
 use of overlap-Matrix (Vanderbilt PP)
 Gauss-broadening in eV      SIGMA  =   0.05


--------------------------------------------------------------------------------------------------------


  energy-cutoff  :      520.00
  volume of cell :     3862.74
      direct lattice vectors                 reciprocal lattice vectors
    12.214370837  0.000000000  0.000000000     0.081870774 -0.000000000  0.000000000
     0.000000000 10.811692247  0.000000000     0.000000000  0.092492459  0.000000000
     0.000000000  0.000000000 29.250333490    -0.000000000 -0.000000000  0.034187644

  length of vectors
    12.214370837 10.811692247 29.250333490     0.081870774  0.092492459  0.034187644


 
 k-points in units of 2pi/SCALE and weight: read from INCAR                         
   0.00000000  0.00000000  0.00000000       0.111
   0.02729026  0.00000000  0.00000000       0.222
   0.00000000  0.03083082  0.00000000       0.222
   0.02729026  0.03083082  0.00000000       0.222
  -0.02729026  0.03083082  0.00000000       0.222
 
 k-points in reciprocal lattice and weights: read from INCAR                         
   0.00000000  0.00000000  0.00000000       0.111
   0.33333333  0.00000000  0.00000000       0.222
   0.00000000  0.33333333  0.00000000       0.222
   0.33333333  0.33333333  0.00000000       0.222
  -0.33333333  0.33333333  0.00000000       0.222
 
 position of ions in fractional coordinates (direct lattice) 
   0.49999936  0.12515639  0.31307605
   0.75000000  0.37500000  0.10347904
   0.49999952  0.62515764  0.31307639
   0.49999915  0.87484365  0.31307628
   0.75000053  0.37484367  0.31307620
   0.24999859  0.12515771  0.31307665
   0.00000000  0.62500000  0.10347904
   0.24999910  0.37484221  0.31307652
   0.00000078  0.87463666  0.20881865
   0.00000015  0.62536418  0.20881846
   0.00000028  0.87484244  0.31307614
   0.00000013  0.12515784  0.31307603
   0.99999875  0.37484194  0.31307608
   0.00000037  0.12536397  0.20881857
   0.00000027  0.37463608  0.20881854
   0.25000000  0.37500000  0.10347904
   0.00000000  0.87500000  0.10347904
   0.24999986  0.37463545  0.20881908
   0.25000000  0.12500000  0.10347904
   0.25000031  0.12536437  0.20881880
   0.00000000  0.37500000  0.10347904
   0.00000000  0.12500000  0.10347904
   0.75000000  0.12500000  0.10347904
   0.75000050  0.37463609  0.20881820
   0.00000001  0.62515680  0.31307623
   0.75000090  0.12515739  0.31307586
   0.75000001  0.12536336  0.20881863
   0.50000116  0.37484485  0.31307629
   0.49999984  0.12536375  0.20881878
   0.49999999  0.37463609  0.20881853
   0.50000000  0.12500000  0.10347904
   0.50000000  0.37500000  0.10347904
   0.24999834  0.87484211  0.31307650
   0.25000006  0.62536464  0.20881881
   0.25000007  0.87463592  0.20881885
   0.25000000  0.62500000  0.10347904
   0.24999785  0.62515692  0.31307670
   0.50000000  0.87500000  0.10347904
   0.50000000  0.62500000  0.10347904
   0.49999958  0.87463550  0.20881863
   0.50000018  0.62536375  0.20881890
   0.75000215  0.62515810  0.31307638
   0.75000144  0.87484263  0.31307603
   0.75000021  0.62536332  0.20881875
   0.75000020  0.87463439  0.20881864
   0.75000000  0.62500000  0.10347904
   0.25000000  0.87500000  0.10347904
   0.75000000  0.87500000  0.10347904
   0.25000018  0.25000048  0.15608734
   0.50000000  0.25000000  0.05128147
   0.25000024  0.74999984  0.15608706
   0.24999862  0.24999568  0.36752858
   0.24999958  0.24999996  0.26145774
   0.25000000  0.25000000  0.05128147
   0.37500000  0.50000000  0.10347904
   0.37500131  0.99999964  0.20911153
   0.37500049  0.50000003  0.20911177
   0.62500000  0.00000000  0.10347904
   0.25000000  0.75000000  0.05128147
   0.49999954  0.75000005  0.26145727
   0.62500115  0.99999843  0.20911130
   0.50000009  0.74999911  0.15608676
   0.12500050  0.49999966  0.20911164
   0.62500000  0.50000000  0.10347904
   0.50000000  0.75000000  0.05128147
   0.00000071  0.75000061  0.26145659
   0.50000012  0.25000058  0.36752602
   0.12500076  0.49999981  0.31206265
   0.62499942  0.00000115  0.31206221
   0.50000010  0.24999910  0.26145675
   0.99999956  0.75000141  0.36752663
   0.50000004  0.25000020  0.15608667
   0.24999918  0.75000007  0.26145725
   0.00000006  0.74999971  0.15608706
   0.37499939  0.49999993  0.31206285
   0.75000000  0.25000000  0.05128147
   0.24999921  0.74999983  0.36752658
   0.00000000  0.75000000  0.05128147
   0.75000150  0.75000184  0.36752824
   0.12500000  0.00000000  0.10347904
   0.12500000  0.50000000  0.10347904
   0.87500000  0.00000000  0.10347904
   0.87500049  0.49999964  0.31206215
   0.75000007  0.25000013  0.15608701
   0.87499904  0.99999887  0.20911135
   0.74999997  0.74999879  0.15608691
   0.12499922  0.00000006  0.20911156
   0.75000114  0.75000097  0.26145766
   0.74999928  0.24999854  0.26145644
   0.87499941  0.00000106  0.31206213
   0.00000011  0.25000037  0.15608733
   0.12499843  0.99999893  0.31206239
   0.75000006  0.25000153  0.36752563
   0.50000059  0.75000305  0.36752812
   0.00000011  0.24999932  0.26145700
   0.87499986  0.50000019  0.20911138
   0.75000000  0.75000000  0.05128147
   0.87500000  0.50000000  0.10347904
   0.99999961  0.24999807  0.36752809
   0.37500084  0.00000029  0.31206246
   0.62499974  0.50000052  0.20911140
   0.62499833  0.50000104  0.31206231
   0.37500000  0.00000000  0.10347904
   0.00000000  0.25000000  0.05128147
 
 position of ions in cartesian coordinates  (Angst):
   6.10717759  1.35315235  9.15757879
   9.16077813  4.05438459  3.02679635
   6.10717961  6.75901199  9.15758888
   6.10717502  9.45854031  9.15758551
   9.16078455  4.05269439  9.15758322
   3.05357552  1.35316665  9.15759634
   0.00000000  6.75730765  3.02679635
   3.05358168  4.05267865  9.15759248
   0.00000951  9.45630243  6.10801529
   0.00000182  6.76124509  6.10800952
   0.00000340  9.45852726  9.15758145
   0.00000160  1.35316802  9.15757823
  12.21435554  4.05267565  9.15757962
   0.00000448  1.35539672  6.10801283
   0.00000331  4.05045002  6.10801189
   3.05359271  4.05438459  3.02679635
   0.00000000  9.46023072  3.02679635
   3.05359105  4.05044320  6.10802763
   3.05359271  1.35146153  3.02679635
   3.05359652  1.35540103  6.10801944
   0.00000000  4.05438459  3.02679635
   0.00000000  1.35146153  3.02679635
   9.16077813  1.35146153  3.02679635
   9.16078421  4.05045012  6.10800209
   0.00000017  6.75900291  9.15758409
   9.16078916  1.35316315  9.15757339
   9.16077827  1.35539012  6.10801450
   6.10719960  4.05270711  9.15758595
   6.10718343  1.35539432  6.10801899
   6.10718534  4.05045008  6.10801162
   6.10718542  1.35146153  3.02679635
   6.10718542  4.05438459  3.02679635
   3.05357240  9.45852367  9.15759213
   3.05359341  6.76124998  6.10801980
   3.05359360  9.45629444  6.10802097
   3.05359271  6.75730765  3.02679635
   3.05356651  6.75900424  9.15759790
   6.10718542  9.46023072  3.02679635
   6.10718542  6.75730765  3.02679635
   6.10718028  9.45628983  6.10801454
   6.10718760  6.76124043  6.10802244
   9.16080445  6.75901696  9.15758860
   9.16079577  9.45852931  9.15757842
   9.16078073  6.76123572  6.10801818
   9.16078059  9.45627785  6.10801483
   9.16077813  6.75730765  3.02679635
   3.05359271  9.46023072  3.02679635
   9.16077813  9.46023072  3.02679635
   3.05359494  2.70292824  4.56560681
   6.10718542  2.70292306  1.50000000
   3.05359569  8.10876742  4.56559865
   3.05357582  2.70287635 10.75033349
   3.05358753  2.70292266  7.64772612
   3.05359271  2.70292306  1.50000000
   4.58038906  5.40584612  3.02679635
   4.58040505 10.81168838  6.11658203
   4.58039501  5.40584640  6.11658908
   7.63398177  0.00000000  3.02679635
   3.05359271  8.10876919  1.50000000
   6.10717982  8.10876969  7.64771239
   7.63399583 10.81167532  6.11657540
   6.10718651  8.10875952  4.56558968
   1.52680247  5.40584247  6.11658534
   7.63398177  5.40584612  3.02679635
   6.10718542  8.10876919  1.50000000
   0.00000872  8.10877579  7.64769245
   6.10718682  2.70292936 10.75025878
   1.52680561  5.40584407  9.12793670
   7.63397473  0.00001242  9.12792363
   6.10718669  2.70291333  7.64769714
  12.21436552  8.10878442 10.75027643
   6.10718592  2.70292523  4.56558724
   3.05358273  8.10876999  7.64771182
   0.00000079  8.10876600  4.56559869
   4.58038164  5.40584534  9.12794244
   9.16077813  2.70292306  1.50000000
   3.05358302  8.10876737 10.75027489
   0.00000000  8.10876919  1.50000000
   9.16079646  8.10878904 10.75032356
   1.52679635  0.00000000  3.02679635
   1.52679635  5.40584612  3.02679635
  10.68757448  0.00000000  3.02679635
  10.68758042  5.40584222  9.12792209
   9.16077900  2.70292450  4.56559698
  10.68756280 10.81168006  6.11657659
   9.16077776  8.10875607  4.56559406
   1.52678677  0.00000067  6.11658292
   9.16079208  8.10877971  7.64772366
   9.16076930  2.70290724  7.64768811
  10.68756725  0.00001147  9.12792149
   0.00000135  2.70292705  4.56560641
   1.52677714 10.81168070  9.12792885
   9.16077882  2.70293958 10.75024727
   6.10719266  8.10880213 10.75032007
   0.00000137  2.70291572  7.64770439
  10.68757280  5.40584816  6.11657764
   9.16077813  8.10876919  1.50000000
  10.68757448  5.40584612  3.02679635
  12.21436602  2.70290215 10.75031908
   4.58039934  0.00000310  9.12793091
   7.63397856  5.40585179  6.11657833
   7.63396142  5.40585741  9.12792667
   4.58038906  0.00000000  3.02679635
   0.00000000  2.70292306  1.50000000
 


--------------------------------------------------------------------------------------------------------


 k-point     1 :   0.0000 0.0000 0.0000  plane waves:  103981
 k-point     2 :   0.3333 0.0000 0.0000  plane waves:  103908
 k-point     3 :   0.0000 0.3333 0.0000  plane waves:  104002
 k-point     4 :   0.3333 0.3333 0.0000  plane waves:  104029
 k-point     5 :  -0.3333 0.3333 0.0000  plane waves:  104029

 maximum and minimum number of plane-waves per node :    104029   103908

 maximum number of plane-waves:    104029
 maximum index in each direction: 
   IXMAX=   23   IYMAX=   20   IZMAX=   54
   IXMIN=  -23   IYMIN=  -20   IZMIN=  -54


 serial   3D FFT for wavefunctions
 parallel 3D FFT for charge:
    minimum data exchange during FFTs selected (reduces bandwidth)


 total amount of memory used by VASP MPI-rank0 16206038. kBytes
=======================================================================

   base      :      30000. kBytes
   nonlr-proj:      62576. kBytes
   fftplans  :    2014492. kBytes
   grid      :    1242808. kBytes
   one-center:       3234. kBytes
   wavefun   :   12852928. kBytes
 
     INWAV:  cpu time      0.0000: real time      0.0000
 Broyden mixing: mesh for mixing (old mesh)
   NGX = 45   NGY = 41   NGZ =109
  (NGX  =192   NGY  =160   NGZ  =448)
  gives a total of 201105 points

 initial charge density was supplied:
 charge density of overlapping atoms calculated
 number of electron    1184.0000000 magnetization     104.0000000
 keeping initial charge density in first step


--------------------------------------------------------------------------------------------------------


 Maximum index for non-local projection operator          5015
 Maximum index for augmentation-charges        138393 (set IRDMAX)


--------------------------------------------------------------------------------------------------------


 First call to EWALD:  gamma=   0.113
 Maximum number of real-space cells 3x 4x 2
 Maximum number of reciprocal cells 2x 2x 5

    FEWALD:  cpu time      0.1492: real time      0.0585


--------------------------------------- Ionic step        1  -------------------------------------------




--------------------------------------- Iteration      1(   1)  ---------------------------------------


    POTLOK:  cpu time      0.5142: real time      0.5067
    SETDIJ:  cpu time     52.9821: real time     19.2414
     EDDAV:  cpu time     92.8658: real time     92.8724
       DOS:  cpu time      0.0038: real time      0.0038
    --------------------------------------------
      LOOP:  cpu time    146.3659: real time    112.6243

 eigenvalue-minimisations  : 17440
 total energy-change (2. order) : 0.1128767E+05  (-0.7042185E+05)
 number of electron    1184.0000000 magnetization     104.0000000
 augmentation part     1184.0000000 magnetization     104.0000000

 DIPCOR: dipole corrections for dipol
 direction  3 min pos   317,
 dipolmoment           0.000000      0.000000     -0.000025 electrons x Angstroem
 Tr[quadrupol]    -27634.852845

 energy correction for charged system         0.000000 eV
 dipol+quadrupol energy correction           -0.000000 eV
 added-field ion interaction          0.000132 eV  (added to PSCEN)


 Free energy of the ion-electron system (eV)
  ---------------------------------------------------
  alpha Z        PSCENC =      2528.25368644
  Ewald energy   TEWEN  =    869174.00474879
  -Hartree energ DENC   =  -1024525.74475021
  -exchange      EXHF   =         0.00000000
  -V(xc)+E(xc)   XCENC  =      5941.22227348
  PAW double counting   =    143071.06598711  -141542.99985301
  entropy T*S    EENTRO =        -0.04310564
  eigenvalues    EBANDS =    -10917.85673067
  atomic energy  EATOM  =    167559.77141114
  Solvation  Ediel_sol  =         0.00000000
  ---------------------------------------------------
  free energy    TOTEN  =     11287.67366744 eV

  energy without entropy =    11287.71677308  energy(sigma->0) =    11287.69522026


--------------------------------------------------------------------------------------------------------




--------------------------------------- Iteration      1(   2)  ---------------------------------------


     EDDAV:  cpu time     93.6122: real time     93.6175
       DOS:  cpu time      0.0026: real time      0.0026
    --------------------------------------------
      LOOP:  cpu time     93.6148: real time     93.6201

 eigenvalue-minimisations  : 17284
 total energy-change (2. order) :-0.1102707E+05  (-0.1065074E+05)
 number of electron    1184.0000000 magnetization     104.0000000
 augmentation part     1184.0000000 magnetization     104.0000000

 DIPCOR: dipole corrections for dipol
 direction  3 min pos   317,
 dipolmoment           0.000000      0.000000     -0.000025 electrons x Angstroem
 Tr[quadrupol]    -27634.852845

 energy correction for charged system         0.000000 eV
 dipol+quadrupol energy correction           -0.000000 eV
 added-field ion interaction          0.000132 eV  (added to PSCEN)


 Free energy of the ion-electron system (eV)
  ---------------------------------------------------
  alpha Z        PSCENC =      2528.25368644
  Ewald energy   TEWEN  =    869174.00474879
  -Hartree energ DENC   =  -1024525.74475021
  -exchange      EXHF   =         0.00000000
  -V(xc)+E(xc)   XCENC  =      5941.22227348
  PAW double counting   =    143071.06598711  -141542.99985301
  entropy T*S    EENTRO =        -0.04804989
  eigenvalues    EBANDS =    -21944.92260644
  atomic energy  EATOM  =    167559.77141114
  Solvation  Ediel_sol  =         0.00000000
  ---------------------------------------------------
  free energy    TOTEN  =       260.60284742 eV

  energy without entropy =      260.65089731  energy(sigma->0) =      260.62687236


--------------------------------------------------------------------------------------------------------




--------------------------------------- Iteration      1(   3)  ---------------------------------------


     EDDAV:  cpu time     91.5384: real time     91.5335
       DOS:  cpu time      0.0028: real time      0.0028
    --------------------------------------------
      LOOP:  cpu time     91.5412: real time     91.5362

 eigenvalue-minimisations  : 16952
 total energy-change (2. order) :-0.8345321E+03  (-0.8039773E+03)
 number of electron    1184.0000000 magnetization     104.0000000
 augmentation part     1184.0000000 magnetization     104.0000000

 DIPCOR: dipole corrections for dipol
 direction  3 min pos   317,
 dipolmoment           0.000000      0.000000     -0.000025 electrons x Angstroem
 Tr[quadrupol]    -27634.852845

 energy correction for charged system         0.000000 eV
 dipol+quadrupol energy correction           -0.000000 eV
 added-field ion interaction          0.000132 eV  (added to PSCEN)


 Free energy of the ion-electron system (eV)
  ---------------------------------------------------
  alpha Z        PSCENC =      2528.25368644
  Ewald energy   TEWEN  =    869174.00474879
  -Hartree energ DENC   =  -1024525.74475021
  -exchange      EXHF   =         0.00000000
  -V(xc)+E(xc)   XCENC  =      5941.22227348
  PAW double counting   =    143071.06598711  -141542.99985301
  entropy T*S    EENTRO =        -0.08847671
  eigenvalues    EBANDS =    -22779.41429035
  atomic energy  EATOM  =    167559.77141114
  Solvation  Ediel_sol  =         0.00000000
  ---------------------------------------------------
  free energy    TOTEN  =      -573.92926332 eV

  energy without entropy =     -573.84078660  energy(sigma->0) =     -573.88502496


--------------------------------------------------------------------------------------------------------




--------------------------------------- Iteration      1(   4)  ---------------------------------------


     EDDAV:  cpu time     91.8483: real time     91.8513
       DOS:  cpu time      0.0026: real time      0.0026
    --------------------------------------------
      LOOP:  cpu time     91.8509: real time     91.8540

 eigenvalue-minimisations  : 16936
 total energy-change (2. order) :-0.2467294E+02  (-0.2447955E+02)
 number of electron    1184.0000000 magnetization     104.0000000
 augmentation part     1184.0000000 magnetization     104.0000000

 DIPCOR: dipole corrections for dipol
 direction  3 min pos   317,
 dipolmoment           0.000000      0.000000     -0.000025 electrons x Angstroem
 Tr[quadrupol]    -27634.852845

 energy correction for charged system         0.000000 eV
 dipol+quadrupol energy correction           -0.000000 eV
 added-field ion interaction          0.000132 eV  (added to PSCEN)


 Free energy of the ion-electron system (eV)
  ---------------------------------------------------
  alpha Z        PSCENC =      2528.25368644
  Ewald energy   TEWEN  =    869174.00474879
  -Hartree energ DENC   =  -1024525.74475021
  -exchange      EXHF   =         0.00000000
  -V(xc)+E(xc)   XCENC  =      5941.22227348
  PAW double counting   =    143071.06598711  -141542.99985301
  entropy T*S    EENTRO =        -0.08750187
  eigenvalues    EBANDS =    -22804.08820695
  atomic energy  EATOM  =    167559.77141114
  Solvation  Ediel_sol  =         0.00000000
  ---------------------------------------------------
  free energy    TOTEN  =      -598.60220507 eV

  energy without entropy =     -598.51470320  energy(sigma->0) =     -598.55845414


--------------------------------------------------------------------------------------------------------




--------------------------------------- Iteration      1(   5)  ---------------------------------------


     EDDAV:  cpu time     88.7405: real time     88.7395
       DOS:  cpu time      0.0027: real time      0.0027
    CHARGE:  cpu time     12.0114: real time      9.2121
    MIXING:  cpu time      0.8205: real time      0.3898
    --------------------------------------------
      LOOP:  cpu time    101.5751: real time     98.3441

 eigenvalue-minimisations  : 16888
 total energy-change (2. order) :-0.4418335E+00  (-0.4412256E+00)
 number of electron    1184.0000038 magnetization      98.0888038
 augmentation part      453.6855040 magnetization      89.7672232

 DIPCOR: dipole corrections for dipol
 direction  3 min pos   317,
 dipolmoment           0.000000      0.000000     -0.000025 electrons x Angstroem
 Tr[quadrupol]    -27634.852845

 energy correction for charged system         0.000000 eV
 dipol+quadrupol energy correction           -0.000000 eV
 added-field ion interaction          0.000132 eV  (added to PSCEN)


 Broyden mixing:
  rms(total) = 0.84064E+01    rms(broyden)= 0.84047E+01
  rms(prec ) = 0.86130E+01
  weight for this iteration     100.00

 Free energy of the ion-electron system (eV)
  ---------------------------------------------------
  alpha Z        PSCENC =      2528.25368644
  Ewald energy   TEWEN  =    869174.00474879
  -Hartree energ DENC   =  -1024525.74475021
  -exchange      EXHF   =         0.00000000
  -V(xc)+E(xc)   XCENC  =      5941.22227348
  PAW double counting   =    143071.06598711  -141542.99985301
  entropy T*S    EENTRO =        -0.08746783
  eigenvalues    EBANDS =    -22804.53007454
  atomic energy  EATOM  =    167559.77141114
  Solvation  Ediel_sol  =         0.00000000
  ---------------------------------------------------
  free energy    TOTEN  =      -599.04403862 eV

  energy without entropy =     -598.95657079  energy(sigma->0) =     -599.00030470


--------------------------------------------------------------------------------------------------------




--------------------------------------- Iteration      1(   6)  ---------------------------------------


    POTLOK:  cpu time      0.6470: real time      0.6364
    SETDIJ:  cpu time     41.8878: real time     13.8292
     EDDAV:  cpu time     85.9284: real time     85.9424
       DOS:  cpu time      0.0026: real time      0.0026
    CHARGE:  cpu time     11.0321: real time      8.7920
    MIXING:  cpu time      0.4399: real time      0.2043
    --------------------------------------------
      LOOP:  cpu time    139.9378: real time    109.4071

 eigenvalue-minimisations  : 15740
 total energy-change (2. order) : 0.8101680E+02  (-0.5659502E+02)
 number of electron    1184.0000038 magnetization      94.7459228
 augmentation part      466.9696523 magnetization      77.7392922

 DIPCOR: dipole corrections for dipol
 direction  3 min pos   304,
 dipolmoment           0.000000      0.000000      0.819367 electrons x Angstroem
 Tr[quadrupol]    -27639.278388

 energy correction for charged system         0.000000 eV
 dipol+quadrupol energy correction           -0.015726 eV
 added-field ion interaction        -42.955697 eV  (added to PSCEN)


 Broyden mixing:
  rms(total) = 0.57776E+01    rms(broyden)= 0.57764E+01
  rms(prec ) = 0.65914E+01
  weight for this iteration     100.00

 eigenvalues of (default mixing * dielectric matrix)
  average eigenvalue GAMMA=   0.7211
  0.7211

 Free energy of the ion-electron system (eV)
  ---------------------------------------------------
  alpha Z        PSCENC =      2485.28213180
  Ewald energy   TEWEN  =    869174.00474879
  -Hartree energ DENC   =  -1024255.95861146
  -exchange      EXHF   =         0.00000000
  -V(xc)+E(xc)   XCENC  =      5969.63273387
  PAW double counting   =    146321.08288458  -144902.54188118
  entropy T*S    EENTRO =        -0.10274697
  eigenvalues    EBANDS =    -22869.19791250
  atomic energy  EATOM  =    167559.77141114
  Solvation  Ediel_sol  =         0.00000000
  ---------------------------------------------------
  free energy    TOTEN  =      -518.02724192 eV

  energy without entropy =     -517.92449495  energy(sigma->0) =     -517.97586844


--------------------------------------------------------------------------------------------------------




--------------------------------------- Iteration      1(   7)  ---------------------------------------


    POTLOK:  cpu time      0.4651: real time      0.4549
    SETDIJ:  cpu time     54.2568: real time     19.9539
     EDDAV:  cpu time     92.4946: real time     92.4752
       DOS:  cpu time      0.0028: real time      0.0028
    CHARGE:  cpu time     11.3975: real time      8.5818
    MIXING:  cpu time      0.4646: real time      0.2373
    --------------------------------------------
      LOOP:  cpu time    159.0814: real time    121.7059

 eigenvalue-minimisations  : 17312
 total energy-change (2. order) :-0.1536579E+03  (-0.2331322E+02)
 number of electron    1184.0000036 magnetization      93.7723425
 augmentation part      452.1209999 magnetization      71.0870526

 DIPCOR: dipole corrections for dipol
 direction  3 min pos   317,
 dipolmoment           0.000000      0.000000     -5.364032 electrons x Angstroem
 Tr[quadrupol]    -27666.478303

 energy correction for charged system         0.000000 eV
 dipol+quadrupol energy correction           -0.673956 eV
 added-field ion interaction         28.678985 eV  (added to PSCEN)


 Broyden mixing:
  rms(total) = 0.89619E+01    rms(broyden)= 0.89612E+01
  rms(prec ) = 0.14067E+02
  weight for this iteration     100.00

 eigenvalues of (default mixing * dielectric matrix)
  average eigenvalue GAMMA=   0.4745
  0.7623  0.1867

 Free energy of the ion-electron system (eV)
  ---------------------------------------------------
  alpha Z        PSCENC =      2556.25858347
  Ewald energy   TEWEN  =    869174.00474879
  -Hartree energ DENC   =  -1025687.19522551
  -exchange      EXHF   =         0.00000000
  -V(xc)+E(xc)   XCENC  =      5984.63143215
  PAW double counting   =    148724.03579911  -147295.69890771
  entropy T*S    EENTRO =        -0.14518540
  eigenvalues    EBANDS =    -21687.34777515
  atomic energy  EATOM  =    167559.77141114
  Solvation  Ediel_sol  =         0.00000000
  ---------------------------------------------------
  free energy    TOTEN  =      -671.68511910 eV

  energy without entropy =     -671.53993370  energy(sigma->0) =     -671.61252640


--------------------------------------------------------------------------------------------------------




--------------------------------------- Iteration      1(   8)  ---------------------------------------


    POTLOK:  cpu time      0.6574: real time      0.6465
    SETDIJ:  cpu time     55.1969: real time     21.3865
     EDDAV:  cpu time     97.5914: real time     97.5670
       DOS:  cpu time      0.0027: real time      0.0027
    CHARGE:  cpu time     10.7828: real time      8.8567
    MIXING:  cpu time      0.4805: real time      0.2829
    --------------------------------------------
      LOOP:  cpu time    164.7116: real time    128.7423

 eigenvalue-minimisations  : 18046
 total energy-change (2. order) : 0.1495867E+03  (-0.1961830E+02)
 number of electron    1184.0000038 magnetization      91.2893858
 augmentation part      459.1281672 magnetization      68.4877105

 DIPCOR: dipole corrections for dipol
 direction  3 min pos   312,
 dipolmoment           0.000000      0.000000      1.681054 electrons x Angstroem
 Tr[quadrupol]    -27662.660186

 energy correction for charged system         0.000000 eV
 dipol+quadrupol energy correction           -0.066193 eV
 added-field ion interaction        -39.427152 eV  (added to PSCEN)


 Broyden mixing:
  rms(total) = 0.61529E+01    rms(broyden)= 0.61522E+01
  rms(prec ) = 0.74393E+01
  weight for this iteration     100.00

 eigenvalues of (default mixing * dielectric matrix)
  average eigenvalue GAMMA=   0.4289
  0.8577  0.3259  0.1031

 Free energy of the ion-electron system (eV)
  ---------------------------------------------------
  alpha Z        PSCENC =      2488.76020961
  Ewald energy   TEWEN  =    869174.00474879
  -Hartree energ DENC   =  -1025609.76776569
  -exchange      EXHF   =         0.00000000
  -V(xc)+E(xc)   XCENC  =      5985.40992484
  PAW double counting   =    149036.30239380  -147623.94755733
  entropy T*S    EENTRO =        -0.15812194
  eigenvalues    EBANDS =    -21532.47361874
  atomic energy  EATOM  =    167559.77141114
  Solvation  Ediel_sol  =         0.00000000
  ---------------------------------------------------
  free energy    TOTEN  =      -522.09837554 eV

  energy without entropy =     -521.94025359  energy(sigma->0) =     -522.01931457


--------------------------------------------------------------------------------------------------------




--------------------------------------- Iteration      1(   9)  ---------------------------------------


    POTLOK:  cpu time      0.5250: real time      0.5152
    SETDIJ:  cpu time     50.6104: real time     19.6034
     EDDAV:  cpu time     91.8528: real time     91.8247
       DOS:  cpu time      0.0026: real time      0.0026
    CHARGE:  cpu time     11.6984: real time      8.5326
    MIXING:  cpu time      0.4247: real time      0.2245
    --------------------------------------------
      LOOP:  cpu time    155.1139: real time    120.7030

 eigenvalue-minimisations  : 16848
 total energy-change (2. order) : 0.6220952E+02  (-0.8552824E+01)
 number of electron    1184.0000038 magnetization      89.4447108
 augmentation part      462.1283109 magnetization      73.1358986

 DIPCOR: dipole corrections for dipol
 direction  3 min pos   319,
 dipolmoment           0.000000      0.000000      0.974115 electrons x Angstroem
 Tr[quadrupol]    -27651.767763

 energy correction for charged system         0.000000 eV
 dipol+quadrupol energy correction           -0.022226 eV
 added-field ion interaction          1.847294 eV  (added to PSCEN)


 Broyden mixing:
  rms(total) = 0.34767E+01    rms(broyden)= 0.34762E+01
  rms(prec ) = 0.36955E+01
  weight for this iteration     100.00

 eigenvalues of (default mixing * dielectric matrix)
  average eigenvalue GAMMA=   0.4336
  0.9286  0.3460  0.3460  0.1136

 Free energy of the ion-electron system (eV)
  ---------------------------------------------------
  alpha Z        PSCENC =      2530.07862167
  Ewald energy   TEWEN  =    869174.00474879
  -Hartree energ DENC   =  -1025056.43227155
  -exchange      EXHF   =         0.00000000
  -V(xc)+E(xc)   XCENC  =      5992.08173519
  PAW double counting   =    150122.29058169  -148728.10833089
  entropy T*S    EENTRO =        -0.08107018
  eigenvalues    EBANDS =    -22053.49427950
  atomic energy  EATOM  =    167559.77141114
  Solvation  Ediel_sol  =         0.00000000
  ---------------------------------------------------
  free energy    TOTEN  =      -459.88885363 eV

  energy without entropy =     -459.80778345  energy(sigma->0) =     -459.84831854


--------------------------------------------------------------------------------------------------------




--------------------------------------- Iteration      1(  10)  ---------------------------------------


    POTLOK:  cpu time      0.7026: real time      0.6854
    SETDIJ:  cpu time     52.5044: real time     19.0820
     EDDAV:  cpu time     92.0168: real time     91.9757
       DOS:  cpu time      0.0027: real time      0.0027
    CHARGE:  cpu time     12.1067: real time      8.9783
    MIXING:  cpu time      0.8393: real time      0.3477
    --------------------------------------------
      LOOP:  cpu time    158.1725: real time    121.0718

 eigenvalue-minimisations  : 16744
 total energy-change (2. order) : 0.1136413E+02  (-0.2064909E+01)
 number of electron    1184.0000038 magnetization      84.5592863
 augmentation part      461.9692836 magnetization      66.7938393

 DIPCOR: dipole corrections for dipol
 direction  3 min pos   317,
 dipolmoment           0.000000      0.000000      0.864814 electrons x Angstroem
 Tr[quadrupol]    -27650.282316

 energy correction for charged system         0.000000 eV
 dipol+quadrupol energy correction           -0.017518 eV
 added-field ion interaction         -4.623756 eV  (added to PSCEN)


 Broyden mixing:
  rms(total) = 0.25016E+01    rms(broyden)= 0.25014E+01
  rms(prec ) = 0.26223E+01
  weight for this iteration     100.00

 eigenvalues of (default mixing * dielectric matrix)
  average eigenvalue GAMMA=   0.4737
  1.0136  0.4113  0.4113  0.4226  0.1095

 Free energy of the ion-electron system (eV)
  ---------------------------------------------------
  alpha Z        PSCENC =      2523.61228002
  Ewald energy   TEWEN  =    869174.00474879
  -Hartree energ DENC   =  -1025062.60616607
  -exchange      EXHF   =         0.00000000
  -V(xc)+E(xc)   XCENC  =      5997.95171719
  PAW double counting   =    150896.38551451  -149497.18028940
  entropy T*S    EENTRO =        -0.06545690
  eigenvalues    EBANDS =    -22040.39847940
  atomic energy  EATOM  =    167559.77141114
  Solvation  Ediel_sol  =         0.00000000
  ---------------------------------------------------
  free energy    TOTEN  =      -448.52472012 eV

  energy without entropy =     -448.45926322  energy(sigma->0) =     -448.49199167


--------------------------------------------------------------------------------------------------------




--------------------------------------- Iteration      1(  11)  ---------------------------------------


    POTLOK:  cpu time      0.4564: real time      0.4454
    SETDIJ:  cpu time     42.5446: real time     14.1901
     EDDAV:  cpu time     89.2467: real time     89.2138
       DOS:  cpu time      0.0026: real time      0.0026
    CHARGE:  cpu time     11.9914: real time      8.8373
    MIXING:  cpu time      0.5499: real time      0.2594
    --------------------------------------------
      LOOP:  cpu time    144.7916: real time    112.9486

 eigenvalue-minimisations  : 16136
 total energy-change (2. order) :-0.1604341E+00  (-0.7945648E+00)
 number of electron    1184.0000038 magnetization      77.2035101
 augmentation part      460.3852388 magnetization      57.3980934

 DIPCOR: dipole corrections for dipol
 direction  3 min pos   316,
 dipolmoment           0.000000      0.000000      0.972639 electrons x Angstroem
 Tr[quadrupol]    -27654.351846

 energy correction for charged system         0.000000 eV
 dipol+quadrupol energy correction           -0.022159 eV
 added-field ion interaction         -8.722622 eV  (added to PSCEN)


 Broyden mixing:
  rms(total) = 0.20303E+01    rms(broyden)= 0.20301E+01
  rms(prec ) = 0.22088E+01
  weight for this iteration     100.00

 eigenvalues of (default mixing * dielectric matrix)
  average eigenvalue GAMMA=   0.5823
  1.3286  0.6022  0.6022  0.1101  0.4685  0.3820

 Free energy of the ion-electron system (eV)
  ---------------------------------------------------
  alpha Z        PSCENC =      2519.50877336
  Ewald energy   TEWEN  =    869174.00474879
  -Hartree energ DENC   =  -1025364.71980698
  -exchange      EXHF   =         0.00000000
  -V(xc)+E(xc)   XCENC  =      6001.15483285
  PAW double counting   =    152688.93075738  -151279.01927959
  entropy T*S    EENTRO =        -0.06594716
  eigenvalues    EBANDS =    -21748.25064405
  atomic energy  EATOM  =    167559.77141114
  Solvation  Ediel_sol  =         0.00000000
  ---------------------------------------------------
  free energy    TOTEN  =      -448.68515425 eV

  energy without entropy =     -448.61920710  energy(sigma->0) =     -448.65218067


--------------------------------------------------------------------------------------------------------




--------------------------------------- Iteration      1(  12)  ---------------------------------------


    POTLOK:  cpu time      0.4680: real time      0.4543
    SETDIJ:  cpu time     38.4211: real time     11.7958
     EDDAV:  cpu time     88.3127: real time     88.2917
       DOS:  cpu time      0.0025: real time      0.0025
    CHARGE:  cpu time     11.7151: real time      8.5503
    MIXING:  cpu time      0.4338: real time      0.2245
    --------------------------------------------
      LOOP:  cpu time    139.3531: real time    109.3192

 eigenvalue-minimisations  : 16072
 total energy-change (2. order) :-0.1820023E+01  (-0.1165731E+01)
 number of electron    1184.0000038 magnetization      69.9814461
 augmentation part      461.5698271 magnetization      52.3592996

 DIPCOR: dipole corrections for dipol
 direction  3 min pos   311,
 dipolmoment           0.000000      0.000000      0.391195 electrons x Angstroem
 Tr[quadrupol]    -27656.057270

 energy correction for charged system         0.000000 eV
 dipol+quadrupol energy correction           -0.003585 eV
 added-field ion interaction        -10.591715 eV  (added to PSCEN)


 Broyden mixing:
  rms(total) = 0.15715E+01    rms(broyden)= 0.15714E+01
  rms(prec ) = 0.16010E+01
  weight for this iteration     100.00

 eigenvalues of (default mixing * dielectric matrix)
  average eigenvalue GAMMA=   0.7071
  2.1931  0.1101  0.7207  0.5232  0.5232  0.4973  0.3823

 Free energy of the ion-electron system (eV)
  ---------------------------------------------------
  alpha Z        PSCENC =      2517.65825547
  Ewald energy   TEWEN  =    869174.00474879
  -Hartree energ DENC   =  -1025445.28322121
  -exchange      EXHF   =         0.00000000
  -V(xc)+E(xc)   XCENC  =      5999.21766021
  PAW double counting   =    154653.69121988  -153252.11733712
  entropy T*S    EENTRO =        -0.05764957
  eigenvalues    EBANDS =    -21657.39026454
  atomic energy  EATOM  =    167559.77141114
  Solvation  Ediel_sol  =         0.00000000
  ---------------------------------------------------
  free energy    TOTEN  =      -450.50517694 eV

  energy without entropy =     -450.44752737  energy(sigma->0) =     -450.47635215


--------------------------------------------------------------------------------------------------------




--------------------------------------- Iteration      1(  13)  ---------------------------------------


    POTLOK:  cpu time      0.4997: real time      0.4861
    SETDIJ:  cpu time     54.7315: real time     24.6545
     EDDAV:  cpu time     89.8352: real time     89.8892
       DOS:  cpu time      0.0023: real time      0.0023
    CHARGE:  cpu time     10.9832: real time      8.8527
    MIXING:  cpu time      0.4260: real time      0.2713
    --------------------------------------------
      LOOP:  cpu time    156.4778: real time    124.1561

 eigenvalue-minimisations  : 16224
 total energy-change (2. order) :-0.6067079E+01  (-0.7253923E+00)
 number of electron    1184.0000038 magnetization      64.7988015
 augmentation part      460.7514172 magnetization      46.8227162

 DIPCOR: dipole corrections for dipol
 direction  3 min pos   306,
 dipolmoment           0.000000      0.000000      0.206204 electrons x Angstroem
 Tr[quadrupol]    -27661.501037

 energy correction for charged system         0.000000 eV
 dipol+quadrupol energy correction           -0.000996 eV
 added-field ion interaction         -9.316814 eV  (added to PSCEN)


 Broyden mixing:
  rms(total) = 0.12665E+01    rms(broyden)= 0.12664E+01
  rms(prec ) = 0.12833E+01
  weight for this iteration     100.00

 eigenvalues of (default mixing * dielectric matrix)
  average eigenvalue GAMMA=   0.7568
  2.4640  0.9570  0.1101  0.5857  0.5857  0.4740  0.4740  0.4038

 Free energy of the ion-electron system (eV)
  ---------------------------------------------------
  alpha Z        PSCENC =      2518.93574431
  Ewald energy   TEWEN  =    869174.00474879
  -Hartree energ DENC   =  -1025750.66587653
[...]
      3.05359      4.07262      9.15204        -0.000028     -0.008310     -0.013813
      0.00000      9.45637      6.10263        -0.000026      0.007189     -0.023151
      0.00000      6.76116      6.10263         0.000020     -0.007170     -0.023109
     12.21437      9.47847      9.15201        -0.000036     -0.008330     -0.013718
     12.21437      1.33322      9.15202         0.000016      0.008284     -0.013739
     12.21437      4.07262      9.15203         0.000019     -0.008332     -0.013796
      0.00000      1.35532      6.10263         0.000007     -0.007193     -0.023118
      0.00000      4.05053      6.10263         0.000017      0.007144     -0.023077
      3.05359      4.05438      3.02680         0.000002      0.596735      0.452773
      0.00000      9.46023      3.02680         0.000005      0.596738      0.452761
      3.05359      4.05053      6.10264        -0.000015      0.007182     -0.023116
      3.05359      1.35146      3.02680         0.000002     -0.596721      0.452782
      3.05360      1.35532      6.10264        -0.000041     -0.007133     -0.023129
      0.00000      4.05438      3.02680         0.000001      0.596737      0.452764
      0.00000      1.35146      3.02680         0.000002     -0.596740      0.452764
      9.16078      1.35146      3.02680        -0.000000     -0.596754      0.452749
      9.16078      4.05053      6.10263         0.000016      0.007159     -0.023099
      0.00000      6.73906      9.15202         0.000004      0.008398     -0.013763
      9.16077      1.33322      9.15201         0.000035      0.008345     -0.013700
      9.16078      1.35532      6.10263         0.000040     -0.007206     -0.023166
      6.10719      4.07264      9.15201        -0.000011     -0.008390     -0.013730
      6.10719      1.35532      6.10264        -0.000006     -0.007159     -0.023205
      6.10719      4.05053      6.10264        -0.000017      0.007147     -0.023160
      6.10719      1.35146      3.02680         0.000001     -0.596754      0.452744
      6.10719      4.05438      3.02680         0.000002      0.596749      0.452745
      3.05359      9.47847      9.15202        -0.000001     -0.008414     -0.013744
      3.05359      6.76116      6.10264        -0.000023     -0.007194     -0.023143
      3.05359      9.45638      6.10264        -0.000014      0.007137     -0.023150
      3.05359      6.75731      3.02680         0.000001     -0.596745      0.452762
      3.05359      6.73906      9.15202        -0.000004      0.008401     -0.013725
      6.10719      9.46023      3.02680         0.000001      0.596721      0.452770
      6.10719      6.75731      3.02680         0.000002     -0.596761      0.452745
      6.10718      9.45637      6.10264         0.000031      0.007152     -0.023200
      6.10719      6.76116      6.10264        -0.000016     -0.007180     -0.023152
      9.16078      6.73907      9.15203         0.000009      0.008402     -0.013828
      9.16078      9.47847      9.15202         0.000010     -0.008307     -0.013739
      9.16078      6.76116      6.10264         0.000018     -0.007144     -0.023075
      9.16078      9.45637      6.10264         0.000013      0.007161     -0.023204
      9.16078      6.75731      3.02680         0.000003     -0.596759      0.452749
      3.05359      9.46023      3.02680         0.000002      0.596727      0.452773
      9.16078      9.46023      3.02680         0.000002      0.596715      0.452778
      3.05359      2.70292      4.56516         0.000002     -0.000042     -0.010228
      6.10719      2.70292      1.50000         0.000000     -0.000002     -1.033665
      3.05359      8.10877      4.56516         0.000005      0.000041     -0.010195
      3.05358      2.70290     10.77765         0.000006      0.000019      0.001656
      3.05359      2.70293      7.64855         0.000025     -0.000073     -0.027453
      3.05359      2.70292      1.50000        -0.000000     -0.000002     -1.033647
      4.58039      5.40585      3.02680        -0.000005     -0.000004      0.234286
      4.58039      0.00000      6.09435         0.000026     -0.000018      0.002144
      4.58039      5.40585      6.09435         0.000053      0.000004      0.002126
      7.63398      0.00000      3.02680         0.000001     -0.000011      0.234288
      3.05359      8.10877      1.50000         0.000000     -0.000001     -1.033653
      6.10718      8.10877      7.64855         0.000004      0.000007     -0.027374
      7.63398     10.81169      6.09434        -0.000050     -0.000033      0.002161
      6.10718      8.10876      4.56516        -0.000003      0.000088     -0.010133
      1.52680      5.40584      6.09435        -0.000003      0.000029      0.002123
      7.63398      5.40585      3.02680        -0.000000     -0.000005      0.234286
      6.10719      8.10877      1.50000         0.000001      0.000001     -1.033657
      0.00000      8.10877      7.64854         0.000013     -0.000064     -0.027340
      6.10719      2.70293     10.77763         0.000004      0.000002      0.001658
      1.52680      5.40584      9.11230        -0.000050     -0.000006      0.001429
      7.63398      0.00000      9.11229        -0.000141     -0.000014      0.001422
      6.10719      2.70292      7.64854         0.000004      0.000089     -0.027376
     12.21437      8.10877     10.77764         0.000004     -0.000008      0.001641
      6.10719      2.70292      4.56515        -0.000003     -0.000002     -0.010103
      3.05359      8.10877      7.64855         0.000017      0.000043     -0.027378
      0.00000      8.10877      4.56516        -0.000008      0.000021     -0.010208
      4.58038      5.40585      9.11230         0.000122      0.000009      0.001426
      9.16078      2.70292      1.50000         0.000001     -0.000001     -1.033660
      3.05358      8.10877     10.77764        -0.000002     -0.000000      0.001635
      0.00000      8.10877      1.50000         0.000000     -0.000001     -1.033658
      9.16080      8.10878     10.77765         0.000003     -0.000020      0.001653
      1.52680      0.00000      3.02680         0.000004      0.000000      0.234283
      1.52680      5.40585      3.02680         0.000003     -0.000005      0.234282
     10.68757      0.00000      3.02680        -0.000000     -0.000007      0.234285
     10.68758      5.40585      9.11229        -0.000012     -0.000012      0.001437
      9.16078      2.70292      4.56516         0.000002      0.000012     -0.010217
     10.68758     10.81169      6.09434        -0.000035     -0.000007      0.002145
      9.16078      8.10876      4.56516        -0.000093      0.000188     -0.010202
      1.52680     10.81169      6.09434         0.000042      0.000024      0.002140
      9.16078      8.10877      7.64855        -0.000018     -0.000149     -0.027390
      9.16078      2.70292      7.64853        -0.000025      0.000156     -0.027360
     10.68757      0.00000      9.11229         0.000103     -0.000025      0.001426
      0.00000      2.70292      4.56516         0.000003     -0.000001     -0.010252
      1.52679     10.81169      9.11229        -0.000062      0.000038      0.001409
      9.16078      2.70293     10.77762        -0.000004      0.000006      0.001651
      6.10719      8.10879     10.77765        -0.000001     -0.000018      0.001664
     12.21437      2.70292      7.64854         0.000001      0.000064     -0.027408
     10.68758      5.40584      6.09434        -0.000076      0.000006      0.002123
      9.16078      8.10877      1.50000         0.000001      0.000002     -1.033652
     10.68757      5.40585      3.02680         0.000002     -0.000005      0.234283
     12.21436      2.70291     10.77764        -0.000006      0.000012      0.001657
      4.58038     10.81169      9.11230         0.000161     -0.000006      0.001412
      7.63398      5.40585      6.09434         0.000013     -0.000035      0.002134
      7.63398      5.40586      9.11229        -0.000026     -0.000043      0.001426
      4.58039      0.00000      3.02680        -0.000004     -0.000004      0.234288
      0.00000      2.70292      1.50000         0.000001     -0.000002     -1.033653
 -----------------------------------------------------------------------------------
    total drift:                               -0.000074      0.000083      0.087430


--------------------------------------------------------------------------------------------------------



  FREE ENERGIE OF THE ION-ELECTRON SYSTEM (eV)
  ---------------------------------------------------
  free  energy   TOTEN  =      -570.79317309 eV

  energy  without entropy=     -570.75065533  energy(sigma->0) =     -570.77191421
 
 d Force = 0.2716913E-02[ 0.158E-03, 0.528E-02]  d Energy = 0.2537722E-02 0.179E-03
 d Force =-0.3442335E+02[-0.341E+02,-0.348E+02]  d Ewald  =-0.3442316E+02-0.194E-03


--------------------------------------------------------------------------------------------------------


    POTLOK:  cpu time     42.1476: real time     13.1517


--------------------------------------------------------------------------------------------------------




--------------------------------------------------------------------------------------------------------


  
 reached required accuracy - stopping structural energy minimisation
     LOOP+:  cpu time   4442.6152: real time   3321.0319
 vacuum level on the upper side and lower side of the slab         3.647         3.617
    4ORBIT:  cpu time      0.0000: real time      0.0000



 total charge

# of ion       s       p       d       tot
------------------------------------------
    1        1.566   3.363   0.000   4.929
    2        1.566   3.370   0.000   4.936
    3        1.566   3.363   0.000   4.929
    4        1.566   3.363   0.000   4.929
    5        1.566   3.363   0.000   4.929
    6        1.566   3.363   0.000   4.929
    7        1.566   3.370   0.000   4.936
    8        1.566   3.363   0.000   4.929
    9        1.561   3.382   0.000   4.943
   10        1.561   3.382   0.000   4.943
   11        1.566   3.363   0.000   4.929
   12        1.566   3.363   0.000   4.929
   13        1.566   3.363   0.000   4.929
   14        1.561   3.382   0.000   4.943
   15        1.561   3.382   0.000   4.943
   16        1.566   3.370   0.000   4.936
   17        1.566   3.370   0.000   4.936
   18        1.561   3.382   0.000   4.943
   19        1.566   3.370   0.000   4.936
   20        1.561   3.382   0.000   4.943
   21        1.566   3.370   0.000   4.936
   22        1.566   3.370   0.000   4.936
   23        1.566   3.370   0.000   4.936
   24        1.561   3.382   0.000   4.943
   25        1.566   3.363   0.000   4.929
   26        1.566   3.363   0.000   4.929
   27        1.561   3.382   0.000   4.943
   28        1.566   3.363   0.000   4.929
   29        1.561   3.382   0.000   4.943
   30        1.561   3.382   0.000   4.943
   31        1.566   3.370   0.000   4.936
   32        1.566   3.370   0.000   4.936
   33        1.566   3.363   0.000   4.929
   34        1.561   3.382   0.000   4.943
   35        1.561   3.382   0.000   4.943
   36        1.566   3.370   0.000   4.936
   37        1.566   3.363   0.000   4.929
   38        1.566   3.370   0.000   4.936
   39        1.566   3.370   0.000   4.936
   40        1.561   3.382   0.000   4.943
   41        1.561   3.382   0.000   4.943
   42        1.566   3.363   0.000   4.929
   43        1.566   3.363   0.000   4.929
   44        1.561   3.382   0.000   4.943
   45        1.561   3.382   0.000   4.943
   46        1.566   3.370   0.000   4.936
   47        1.566   3.370   0.000   4.936
   48        1.566   3.370   0.000   4.936
   49        0.291   6.183   7.914  14.389
   50        0.218   6.087   8.115  14.421
   51        0.291   6.183   7.914  14.389
   52        0.192   6.064   8.135  14.391
   53        0.294   6.186   7.910  14.390
   54        0.218   6.087   8.115  14.421
   55        0.297   6.183   7.921  14.401
   56        0.296   6.186   7.921  14.404
   57        0.296   6.186   7.921  14.404
   58        0.297   6.183   7.921  14.401
   59        0.218   6.087   8.115  14.421
   60        0.294   6.186   7.910  14.390
   61        0.296   6.186   7.921  14.404
   62        0.291   6.183   7.914  14.389
   63        0.296   6.186   7.921  14.404
   64        0.297   6.183   7.921  14.401
   65        0.218   6.087   8.115  14.421
   66        0.294   6.186   7.910  14.390
   67        0.192   6.064   8.135  14.391
   68        0.305   6.192   7.913  14.409
   69        0.305   6.192   7.913  14.409
   70        0.294   6.186   7.910  14.390
   71        0.192   6.064   8.135  14.391
   72        0.291   6.183   7.914  14.389
   73        0.294   6.186   7.910  14.390
   74        0.291   6.183   7.914  14.389
   75        0.305   6.192   7.913  14.409
   76        0.218   6.087   8.115  14.421
   77        0.192   6.064   8.135  14.391
   78        0.218   6.087   8.115  14.421
   79        0.192   6.064   8.135  14.391
   80        0.297   6.183   7.921  14.401
   81        0.297   6.183   7.921  14.401
   82        0.297   6.183   7.921  14.401
   83        0.305   6.192   7.913  14.409
   84        0.291   6.183   7.914  14.389
   85        0.296   6.186   7.921  14.404
   86        0.291   6.183   7.914  14.389
   87        0.296   6.186   7.921  14.404
   88        0.294   6.186   7.910  14.390
   89        0.294   6.186   7.910  14.390
   90        0.305   6.192   7.913  14.409
   91        0.291   6.183   7.914  14.389
   92        0.305   6.192   7.913  14.409
   93        0.192   6.064   8.135  14.391
   94        0.192   6.064   8.135  14.391
   95        0.294   6.186   7.910  14.390
   96        0.296   6.186   7.921  14.404
   97        0.218   6.087   8.115  14.421
   98        0.297   6.183   7.921  14.401
   99        0.192   6.064   8.135  14.391
  100        0.305   6.192   7.913  14.409
  101        0.296   6.186   7.921  14.404
  102        0.305   6.192   7.913  14.409
  103        0.297   6.183   7.921  14.401
  104        0.218   6.087   8.115  14.421
--------------------------------------------------
tot         90.254 506.481 446.6281043.362



 magnetization (x)

# of ion       s       p       d       tot
------------------------------------------
    1        0.005   0.085   0.000   0.089
    2        0.006   0.091   0.000   0.097
    3        0.005   0.085   0.000   0.089
    4        0.005   0.085   0.000   0.089
    5        0.005   0.085   0.000   0.089
    6        0.005   0.085   0.000   0.089
    7        0.006   0.091   0.000   0.097
    8        0.005   0.085   0.000   0.089
    9        0.000   0.002   0.000   0.002
   10        0.000   0.002   0.000   0.002
   11        0.005   0.085   0.000   0.089
   12        0.005   0.085   0.000   0.089
   13        0.005   0.085   0.000   0.089
   14        0.000   0.002   0.000   0.002
   15        0.000   0.002   0.000   0.002
   16        0.006   0.091   0.000   0.097
   17        0.006   0.091   0.000   0.097
   18        0.000   0.002   0.000   0.002
   19        0.006   0.091   0.000   0.097
   20        0.000   0.002   0.000   0.002
   21        0.006   0.091   0.000   0.097
   22        0.006   0.091   0.000   0.097
   23        0.006   0.091   0.000   0.097
   24        0.000   0.002   0.000   0.002
   25        0.005   0.085   0.000   0.089
   26        0.005   0.085   0.000   0.089
   27        0.000   0.002   0.000   0.002
   28        0.005   0.085   0.000   0.089
   29        0.000   0.002   0.000   0.002
   30        0.000   0.002   0.000   0.002
   31        0.006   0.091   0.000   0.097
   32        0.006   0.091   0.000   0.097
   33        0.005   0.085   0.000   0.089
   34        0.000   0.002   0.000   0.002
   35        0.000   0.002   0.000   0.002
   36        0.006   0.091   0.000   0.097
   37        0.005   0.085   0.000   0.089
   38        0.006   0.091   0.000   0.097
   39        0.006   0.091   0.000   0.097
   40        0.000   0.002   0.000   0.002
   41        0.000   0.002   0.000   0.002
   42        0.005   0.085   0.000   0.089
   43        0.005   0.085   0.000   0.089
   44        0.000   0.002   0.000   0.002
   45        0.000   0.002   0.000   0.002
   46        0.006   0.091   0.000   0.097
   47        0.006   0.091   0.000   0.097
   48        0.006   0.091   0.000   0.097
   49        0.001   0.000   0.024   0.025
   50       -0.003   0.016   0.527   0.539
   51        0.001   0.000   0.024   0.025
   52       -0.004   0.010   0.516   0.522
   53        0.001   0.001   0.019   0.020
   54       -0.003   0.016   0.527   0.539
   55        0.004   0.003   0.073   0.079
   56        0.000   0.001   0.042   0.042
   57        0.000   0.001   0.042   0.042
   58        0.004   0.003   0.073   0.079
   59       -0.003   0.016   0.527   0.539
   60        0.001   0.001   0.019   0.020
   61        0.000   0.001   0.042   0.042
   62        0.001   0.000   0.024   0.025
   63        0.000   0.001   0.042   0.042
   64        0.004   0.003   0.073   0.079
   65       -0.003   0.016   0.527   0.539
   66        0.001   0.001   0.019   0.020
   67       -0.004   0.010   0.516   0.522
   68        0.004   0.002   0.064   0.069
   69        0.004   0.002   0.064   0.069
   70        0.001   0.001   0.019   0.020
   71       -0.004   0.010   0.516   0.522
   72        0.001   0.000   0.024   0.025
   73        0.001   0.001   0.019   0.020
   74        0.001   0.000   0.024   0.025
   75        0.004   0.002   0.064   0.069
   76       -0.003   0.016   0.527   0.539
   77       -0.004   0.010   0.516   0.522
   78       -0.003   0.016   0.527   0.539
   79       -0.004   0.010   0.516   0.522
   80        0.004   0.003   0.073   0.079
   81        0.004   0.003   0.073   0.079
   82        0.004   0.003   0.073   0.079
   83        0.004   0.002   0.064   0.069
   84        0.001   0.000   0.024   0.025
   85        0.000   0.001   0.042   0.042
   86        0.001   0.000   0.024   0.025
   87        0.000   0.001   0.042   0.042
   88        0.001   0.001   0.019   0.020
   89        0.001   0.001   0.019   0.020
   90        0.004   0.002   0.064   0.069
   91        0.001   0.000   0.024   0.025
   92        0.004   0.002   0.064   0.069
   93       -0.004   0.010   0.516   0.522
   94       -0.004   0.010   0.516   0.522
   95        0.001   0.001   0.019   0.020
   96        0.000   0.001   0.042   0.042
   97       -0.003   0.016   0.527   0.539
   98        0.004   0.003   0.073   0.079
   99       -0.004   0.010   0.516   0.522
  100        0.004   0.002   0.064   0.069
  101        0.000   0.001   0.042   0.042
  102        0.004   0.002   0.064   0.069
  103        0.004   0.003   0.073   0.079
  104       -0.003   0.016   0.527   0.539
--------------------------------------------------
tot          0.185   3.090  10.109  13.384
 

 total amount of memory used by VASP MPI-rank0 16206038. kBytes
=======================================================================

   base      :      30000. kBytes
   nonlr-proj:      62576. kBytes
   fftplans  :    2014492. kBytes
   grid      :    1242808. kBytes
   one-center:       3234. kBytes
   wavefun   :   12852928. kBytes
 
  
  
 General timing and accounting informations for this job:
 ========================================================
  
                  Total CPU time used (sec):    29997.064
                            User time (sec):    28825.430
                          System time (sec):     1171.634
                         Elapsed time (sec):    22871.436
  
                   Maximum memory used (kb):    19614428.
                   Average memory used (kb):          N/A
  
                          Minor page faults:    628273765
                          Major page faults:            0
                 Voluntary context switches:      1474565
