 vasp.6.4.3 19Mar24 (build Nov 27 2025 15:18:09) complex                         
 executed on              LinuxNV date 2026.06.04  16:47:12
 running    4 mpi-ranks, with    1 threads/rank, on    1 nodes
 distrk:  each k-point on    4 cores,    1 groups
 distr:  one band on NCORE=   1 cores,    4 groups
 OpenACC runtime initialized ...    0 GPUs detected


--------------------------------------------------------------------------------------------------------


 INCAR:
   SYSTEM = pddmc
   ENCUT = 520
   PREC = Accurate
   LASPH = .TRUE.
   ADDGRID = .TRUE.
   ISPIN = 2
   IVDW = 12
   EDIFF = 1e-06
   NELM = 200
   NELMIN = 5
   ALGO = Normal
   NCORE = 1
   LREAL = .FALSE.
   LWAVE = .FALSE.
   LCHARG = .FALSE.
   LORBIT = 11
   ISYM = 2
   IBRION = -1
   NSW = 0
   ISIF = 0
   ISMEAR = 0
   SIGMA = 0.05
   EDIFFG = -0.01

 POTCAR:    PAW_PBE Pd_pv 28Jan2005               
 POTCAR:    PAW_PBE O 08Apr2002                   
 -----------------------------------------------------------------------------
|                                                                             |
|           W    W    AA    RRRRR   N    N  II  N    N   GGGG   !!!           |
|           W    W   A  A   R    R  NN   N  II  NN   N  G    G  !!!           |
|           W    W  A    A  R    R  N N  N  II  N N  N  G       !!!           |
|           W WW W  AAAAAA  RRRRR   N  N N  II  N  N N  G  GGG   !            |
|           WW  WW  A    A  R   R   N   NN  II  N   NN  G    G                |
|           W    W  A    A  R    R  N    N  II  N    N   GGGG   !!!           |
|                                                                             |
|     You use a magnetic or noncollinear calculation, but did not specify     |
|     the initial magnetic moment with the MAGMOM tag. Note that a            |
|     default of 1 will be used for all atoms. This ferromagnetic setup       |
|     may break the symmetry of the crystal, in particular it may rule        |
|     out finding an antiferromagnetic solution. Thence, we recommend         |
|     setting the initial magnetic moment manually or verifying carefully     |
|     that this magnetic setup is desired.                                    |
|                                                                             |
 -----------------------------------------------------------------------------

 POTCAR:    PAW_PBE Pd_pv 28Jan2005               
   SHA256 =  3ce661545bbde58da9a95410dea32907db2844916708bcd35bbe03ee66324d7f Pd_pv/POTCAR          
   COPYR  = (c) Copyright 28Jan2005 Georg Kresse                                                    
   COPYR  = This file is part of the software VASP. Any use, copying, and all other rights are regul
   COPYR  = If you do not have a valid VASP license, you may not use, copy or distribute this file. 
   VRHFIN =Pd: 4p5s4d                                                                               
   LEXCH  = PE                                                                                      
   EATOM  =  2621.5550 eV,  192.6789 Ry                                                             
                                                                                                    
   TITEL  = PAW_PBE Pd_pv 28Jan2005                                                                 
   LULTRA =        F    use ultrasoft PP ?                                                          
   IUNSCR =        1    unscreen: 0-lin 1-nonlin 2-no                                               
   RPACOR =    2.250    partial core radius                                                         
   POMASS =  106.420; ZVAL   =   16.000    mass and valenz                                          
   RCORE  =    2.400    outmost cutoff radius                                                       
   RWIGS  =    2.300; RWIGS  =    1.217    wigner-seitz radius (au A)                               
   ENMAX  =  250.925; ENMIN  =  188.194 eV                                                          
   ICORE  =        3    local potential                                                             
   LCOR   =        T    correct aug charges                                                         
   LPAW   =        T    paw PP                                                                      
   EAUG   =  473.067                                                                                
   DEXC   =    0.000                                                                                
   RMAX   =    2.449    core radius for proj-oper                                                   
   RAUG   =    1.300    factor for augmentation sphere                                              
   RDEP   =    2.405    radius for radial grids                                                     
   RDEPT  =    1.966    core radius for aug-charge                                                  
                                                                                                    
   Atomic configuration                                                                             
   11 entries                                                                                       
     n  l   j            E        occ.                                                              
     1  0  0.50    -24164.6632   2.0000                                                             
     2  0  0.50     -3530.9218   2.0000                                                             
     2  1  1.50     -3165.6822   6.0000                                                             
     3  0  0.50      -639.4578   2.0000                                                             
     3  1  1.50      -519.4532   6.0000                                                             
     3  2  2.50      -328.9758  10.0000                                                             
     4  0  0.50       -88.7014   2.0000                                                             
     4  1  1.50       -54.4541   6.0000                                                             
     4  2  2.50        -6.6878   9.0000                                                             
     5  0  0.50        -4.3543   1.0000                                                             
     4  3  2.50        -1.3606   0.0000                                                             
   Description                                                                                      
     l       E           TYP  RCUT    TYP  RCUT                                                     
     1    -54.4540524     23  2.100                                                                 
     1      4.0817478     23  2.100                                                                 
     2     -6.6878326     23  2.400                                                                 
     2     -4.0817478     23  2.400                                                                 
     0     -4.3542962     23  2.400                                                                 
     0     13.6058260     23  2.400                                                                 
     3     -5.4423304     23  2.400                                                                 
  local pseudopotential read in
  partial core-charges read in
  partial kinetic energy density read in
  atomic valenz-charges read in
  non local Contribution for L=            1  read in
    real space projection operators read in
  non local Contribution for L=            1  read in
    real space projection operators read in
  non local Contribution for L=            2  read in
    real space projection operators read in
  non local Contribution for L=            2  read in
    real space projection operators read in
  non local Contribution for L=            0  read in
    real space projection operators read in
  non local Contribution for L=            0  read in
    real space projection operators read in
    PAW grid and wavefunctions read in
 
   number of l-projection  operators is LMAX  =            6
   number of lm-projection operators is LMMAX =           18
 
 POTCAR:    PAW_PBE O 08Apr2002                   
   SHA256 =  818f92134a0a090dccd8ba1447fa70422a3b330e708bb4f08108d8ae51209ddf O/POTCAR              
   COPYR  = (c) Copyright 08Apr2002 Georg Kresse                                                    
   COPYR  = This file is part of the software VASP. Any use, copying, and all other rights are regul
   COPYR  = If you do not have a valid VASP license, you may not use, copy or distribute this file. 
   VRHFIN =O: s2p4                                                                                  
   LEXCH  = PE                                                                                      
   EATOM  =   432.3788 eV,   31.7789 Ry                                                             
                                                                                                    
   TITEL  = PAW_PBE O 08Apr2002                                                                     
   LULTRA =        F    use ultrasoft PP ?                                                          
   IUNSCR =        1    unscreen: 0-lin 1-nonlin 2-no                                               
   RPACOR =    1.200    partial core radius                                                         
   POMASS =   16.000; ZVAL   =    6.000    mass and valenz                                          
   RCORE  =    1.520    outmost cutoff radius                                                       
   RWIGS  =    1.550; RWIGS  =    0.820    wigner-seitz radius (au A)                               
   ENMAX  =  400.000; ENMIN  =  300.000 eV                                                          
   ICORE  =        2    local potential                                                             
   LCOR   =        T    correct aug charges                                                         
   LPAW   =        T    paw PP                                                                      
   EAUG   =  605.392                                                                                
   DEXC   =    0.000                                                                                
   RMAX   =    1.553    core radius for proj-oper                                                   
   RAUG   =    1.300    factor for augmentation sphere                                              
   RDEP   =    1.550    radius for radial grids                                                     
   RDEPT  =    1.329    core radius for aug-charge                                                  
                                                                                                    
   Atomic configuration                                                                             
    4 entries                                                                                       
     n  l   j            E        occ.                                                              
     1  0  0.50      -514.6923   2.0000                                                             
     2  0  0.50       -23.9615   2.0000                                                             
     2  1  0.50        -9.0305   4.0000                                                             
     3  2  1.50        -9.5241   0.0000                                                             
   Description                                                                                      
     l       E           TYP  RCUT    TYP  RCUT                                                     
     0    -23.9615318     23  1.200                                                                 
     0     -9.5240782     23  1.200                                                                 
     1     -9.0304911     23  1.520                                                                 
     1      8.1634956     23  1.520                                                                 
     2     -9.5240782      7  1.500                                                                 
  local pseudopotential read in
  partial core-charges read in
  partial kinetic energy density read in
  kinetic energy density of atom read in
  atomic valenz-charges read in
  non local Contribution for L=            0  read in
    real space projection operators read in
  non local Contribution for L=            0  read in
    real space projection operators read in
  non local Contribution for L=            1  read in
    real space projection operators read in
  non local Contribution for L=            1  read in
    real space projection operators read in
    PAW grid and wavefunctions read in
 
   number of l-projection  operators is LMAX  =            4
   number of lm-projection operators is LMMAX =            8
 
  PAW_PBE Pd_pv 28Jan2005               :
 energy of atom  1       EATOM=-2621.5550
 kinetic energy error for atom=    0.0088 (will be added to EATOM!!)
  PAW_PBE O 08Apr2002                   :
 energy of atom  2       EATOM= -432.3788
 kinetic energy error for atom=    0.0208 (will be added to EATOM!!)
 
 
 POSCAR: Pd O
  positions in cartesian coordinates
  No initial velocities read in
 IVDW         = 12
 VDW_S6       =    1.0000
 VDW_S8       =    0.7875
 VDW_A1       =    0.4289
 VDW_A2       =    4.4407
 VDW_RADIUS   =   50.2022 A
 VDW_CNRADIUS =   21.1671 A


 exchange-correlation table for PE
   RHO(1)=    0.500       N(1)  =     2000
   RHO(2)=  100.500       N(2)  =     4000
 


--------------------------------------------------------------------------------------------------------


 ion  position               nearest neighbor table
   1  0.500  0.500  0.500-   3 1.97   4 1.97   5 2.00   6 2.00   5 2.00   6 2.00
   2  0.000  0.000  0.000-   5 1.97   6 1.97   3 2.00   4 2.00   3 2.00   4 2.00
   3  0.808  0.192  0.500-   1 1.97   2 2.00   2 2.00
   4  0.192  0.808  0.500-   1 1.97   2 2.00   2 2.00
   5  0.308  0.308  0.000-   2 1.97   1 2.00   1 2.00
   6  0.692  0.692  0.000-   2 1.97   1 2.00   1 2.00
 
  LATTYP: Found a simple tetragonal cell.
 ALAT       =     4.5222304600
 C/A-ratio  =     0.6957349162
  
  Lattice vectors:
  
 A1 = (   4.5222304600,   0.0000000000,   0.0000000000)
 A2 = (   0.0000000000,   4.5222304600,   0.0000000000)
 A3 = (   0.0000000000,   0.0000000000,   3.1462736300)


Analysis of symmetry for initial positions (statically):
=====================================================================
 Subroutine PRICEL returns:
 Original cell was already a primitive cell.
 

 Routine SETGRP: Setting up the symmetry group for a 
 simple tetragonal supercell.


 Subroutine GETGRP returns: Found 16 space group operations
 (whereof  8 operations were pure point group operations)
 out of a pool of 16 trial point group operations.


The static configuration has the point symmetry D_2h.
 The point group associated with its full space group is D_4h.


Analysis of symmetry for dynamics (positions and initial velocities):
=====================================================================
 Subroutine PRICEL returns:
 Original cell was already a primitive cell.
 

 Routine SETGRP: Setting up the symmetry group for a 
 simple tetragonal supercell.


 Subroutine GETGRP returns: Found 16 space group operations
 (whereof  8 operations were pure point group operations)
 out of a pool of 16 trial point group operations.


The dynamic configuration has the point symmetry D_2h.
 The point group associated with its full space group is D_4h.


Analysis of structural, dynamic, and magnetic symmetry:
=====================================================================
 Subroutine PRICEL returns:
 Original cell was already a primitive cell.
 

 Routine SETGRP: Setting up the symmetry group for a 
 simple tetragonal supercell.


 Subroutine GETGRP returns: Found 16 space group operations
 (whereof  8 operations were pure point group operations)
 out of a pool of 16 trial point group operations.


The overall configuration has the point symmetry D_2h.
 The point group associated with its full space group is D_4h.


 Subroutine INISYM returns: Found 16 space group operations
 (whereof  8 operations are pure point group operations),
 and found     1 'primitive' translations


----------------------------------------------------------------------------------------

                                     Primitive cell                                     

  volume of cell :      64.3431

  direct lattice vectors                    reciprocal lattice vectors
     4.522230460  0.000000000  0.000000000     0.221129818 -0.000000000  0.000000000
     0.000000000  4.522230460  0.000000000     0.000000000  0.221129818  0.000000000
     0.000000000  0.000000000  3.146273630    -0.000000000 -0.000000000  0.317836310

  length of vectors
     4.522230460  4.522230460  3.146273630     0.221129818  0.221129818  0.317836310

  position of ions in fractional coordinates (direct lattice)
     0.500000000  0.500000000  0.500000000
     0.000000000  0.000000000  0.000000000
     0.808151920  0.191848080  0.500000000
     0.191848080  0.808151920  0.500000000
     0.308151920  0.308151920  1.000000000
     0.691848080  0.691848080  1.000000000

  ion indices of the primitive-cell ions
   primitive index   ion index
                 1           1
                 2           2
                 3           3
                 4           4
                 5           5
                 6           6

----------------------------------------------------------------------------------------

 
 
 KPOINTS: Automatic mesh                          

Automatic generation of k-mesh.
 Grid dimensions read from file:
 generate k-points for:    6    6    8

 Generating k-lattice:

  Cartesian coordinates                     Fractional coordinates (reciprocal lattice)
     0.036854970 -0.000000000  0.000000000     0.166666667 -0.000000000  0.000000000
     0.000000000  0.036854970  0.000000000     0.000000000  0.166666667  0.000000000
    -0.000000000 -0.000000000  0.039729539     0.000000000 -0.000000000  0.125000000

  Length of vectors
     0.036854970  0.036854970  0.039729539

  Shift w.r.t. Gamma in fractional coordinates (k-lattice)
     0.000000000  0.000000000  0.000000000

 
 Subroutine IBZKPT returns following result:
 ===========================================
 
 Found     50 irreducible k-points:
 
 Following reciprocal coordinates:
            Coordinates               Weight
  0.000000  0.000000  0.000000      1.000000
  0.166667  0.000000  0.000000      4.000000
  0.333333  0.000000  0.000000      4.000000
  0.500000  0.000000  0.000000      2.000000
  0.166667  0.166667  0.000000      4.000000
  0.333333  0.166667  0.000000      8.000000
  0.500000  0.166667  0.000000      4.000000
  0.333333  0.333333  0.000000      4.000000
  0.500000  0.333333  0.000000      4.000000
  0.500000  0.500000  0.000000      1.000000
  0.000000  0.000000  0.125000      2.000000
  0.166667  0.000000  0.125000      8.000000
  0.333333  0.000000  0.125000      8.000000
  0.500000  0.000000  0.125000      4.000000
  0.166667  0.166667  0.125000      8.000000
  0.333333  0.166667  0.125000     16.000000
  0.500000  0.166667  0.125000      8.000000
  0.333333  0.333333  0.125000      8.000000
  0.500000  0.333333  0.125000      8.000000
  0.500000  0.500000  0.125000      2.000000
  0.000000  0.000000  0.250000      2.000000
  0.166667  0.000000  0.250000      8.000000
  0.333333  0.000000  0.250000      8.000000
  0.500000  0.000000  0.250000      4.000000
  0.166667  0.166667  0.250000      8.000000
  0.333333  0.166667  0.250000     16.000000
  0.500000  0.166667  0.250000      8.000000
  0.333333  0.333333  0.250000      8.000000
  0.500000  0.333333  0.250000      8.000000
  0.500000  0.500000  0.250000      2.000000
  0.000000  0.000000  0.375000      2.000000
  0.166667  0.000000  0.375000      8.000000
  0.333333  0.000000  0.375000      8.000000
  0.500000  0.000000  0.375000      4.000000
  0.166667  0.166667  0.375000      8.000000
  0.333333  0.166667  0.375000     16.000000
  0.500000  0.166667  0.375000      8.000000
  0.333333  0.333333  0.375000      8.000000
  0.500000  0.333333  0.375000      8.000000
  0.500000  0.500000  0.375000      2.000000
  0.000000  0.000000  0.500000      1.000000
  0.166667  0.000000  0.500000      4.000000
  0.333333  0.000000  0.500000      4.000000
  0.500000  0.000000  0.500000      2.000000
  0.166667  0.166667  0.500000      4.000000
  0.333333  0.166667  0.500000      8.000000
  0.500000  0.166667  0.500000      4.000000
  0.333333  0.333333  0.500000      4.000000
  0.500000  0.333333  0.500000      4.000000
  0.500000  0.500000  0.500000      1.000000
 
 Following cartesian coordinates:
            Coordinates               Weight
  0.000000  0.000000  0.000000      1.000000
  0.036855  0.000000  0.000000      4.000000
  0.073710  0.000000  0.000000      4.000000
  0.110565  0.000000  0.000000      2.000000
  0.036855  0.036855  0.000000      4.000000
  0.073710  0.036855  0.000000      8.000000
  0.110565  0.036855  0.000000      4.000000
  0.073710  0.073710  0.000000      4.000000
  0.110565  0.073710  0.000000      4.000000
  0.110565  0.110565  0.000000      1.000000
  0.000000  0.000000  0.039730      2.000000
  0.036855  0.000000  0.039730      8.000000
  0.073710  0.000000  0.039730      8.000000
  0.110565  0.000000  0.039730      4.000000
  0.036855  0.036855  0.039730      8.000000
  0.073710  0.036855  0.039730     16.000000
  0.110565  0.036855  0.039730      8.000000
  0.073710  0.073710  0.039730      8.000000
  0.110565  0.073710  0.039730      8.000000
  0.110565  0.110565  0.039730      2.000000
  0.000000  0.000000  0.079459      2.000000
  0.036855  0.000000  0.079459      8.000000
  0.073710  0.000000  0.079459      8.000000
  0.110565  0.000000  0.079459      4.000000
  0.036855  0.036855  0.079459      8.000000
  0.073710  0.036855  0.079459     16.000000
  0.110565  0.036855  0.079459      8.000000
  0.073710  0.073710  0.079459      8.000000
  0.110565  0.073710  0.079459      8.000000
  0.110565  0.110565  0.079459      2.000000
  0.000000  0.000000  0.119189      2.000000
  0.036855  0.000000  0.119189      8.000000
  0.073710  0.000000  0.119189      8.000000
  0.110565  0.000000  0.119189      4.000000
  0.036855  0.036855  0.119189      8.000000
  0.073710  0.036855  0.119189     16.000000
  0.110565  0.036855  0.119189      8.000000
  0.073710  0.073710  0.119189      8.000000
  0.110565  0.073710  0.119189      8.000000
  0.110565  0.110565  0.119189      2.000000
  0.000000  0.000000  0.158918      1.000000
  0.036855  0.000000  0.158918      4.000000
  0.073710  0.000000  0.158918      4.000000
  0.110565  0.000000  0.158918      2.000000
  0.036855  0.036855  0.158918      4.000000
  0.073710  0.036855  0.158918      8.000000
  0.110565  0.036855  0.158918      4.000000
  0.073710  0.073710  0.158918      4.000000
  0.110565  0.073710  0.158918      4.000000
  0.110565  0.110565  0.158918      1.000000
 


--------------------------------------------------------------------------------------------------------




 Dimension of arrays:
   k-points           NKPTS =     50   k-points in BZ     NKDIM =     50   number of bands    NBANDS=     36
   number of dos      NEDOS =    301   number of ions     NIONS =      6
   non local maximal  LDIM  =      6   non local SUM 2l+1 LMDIM =     18
   total plane-waves  NPLWV =  31104
   max r-space proj   IRMAX =      1   max aug-charges    IRDMAX= 155006
   dimension x,y,z NGX =    36 NGY =   36 NGZ =   24
   dimension x,y,z NGXF=    72 NGYF=   72 NGZF=   48
   support grid    NGXF=   144 NGYF=  144 NGZF=   96
   ions per type =               2   4
   NGX,Y,Z   is equivalent  to a cutoff of  13.23, 13.23, 12.68 a.u.
   NGXF,Y,Z  is equivalent  to a cutoff of  26.47, 26.47, 25.36 a.u.

 SYSTEM =  pddmc                                   
 POSCAR =  Pd O                                    

 Startparameter for this run:
   NWRITE =      2    write-flag & timer
   PREC   = accura    normal or accurate (medium, high low for compatibility)
   ISTART =      0    job   : 0-new  1-cont  2-samecut
   ICHARG =      2    charge: 1-file 2-atom 10-const
   ISPIN  =      2    spin polarized calculation?
   LNONCOLLINEAR =      F non collinear calculations
   LSORBIT =      F    spin-orbit coupling
   INIWAV =      1    electr: 0-lowe 1-rand  2-diag
   LASPH  =      T    aspherical Exc in radial PAW
 Electronic Relaxation 1
   ENCUT  =  520.0 eV  38.22 Ry    6.18 a.u.   8.41  8.41  5.85*2*pi/ulx,y,z
   ENINI  =  520.0     initial cutoff
   ENAUG  =  605.4 eV  augmentation charge cutoff
   NELM   =    200;   NELMIN=  5; NELMDL= -5     # of ELM steps 
   EDIFF  = 0.1E-05   stopping-criterion for ELM
   LREAL  =      F    real-space projection
   NLSPLINE    = F    spline interpolate recip. space projectors
   LCOMPAT=      F    compatible to vasp.4.4
   GGA_COMPAT  = T    GGA compatible to vasp.4.4-vasp.4.6
   LMAXPAW     = -100 max onsite density
   LMAXMIX     =    2 max onsite mixed and CHGCAR
   VOSKOWN=      0    Vosko Wilk Nusair interpolation
   ROPT   =    0.00000   0.00000
 Ionic relaxation
   EDIFFG = -.1E-01   stopping-criterion for IOM
   NSW    =      0    number of steps for IOM
   NBLOCK =      1;   KBLOCK =      1    inner block; outer block 
   IBRION =     -1    ionic relax: 0-MD 1-quasi-New 2-CG
   NFREE  =      0    steps in history (QN), initial steepest desc. (CG)
   ISIF   =      0    stress and relaxation
   IWAVPR =     10    prediction:  0-non 1-charg 2-wave 3-comb
   ISYM   =      2    0-nonsym 1-usesym 2-fastsym
   LCORR  =      T    Harris-Foulkes like correction to forces

   POTIM  = 0.5000    time-step for ionic-motion
   TEIN   =    0.0    initial temperature
   TEBEG  =    0.0;   TEEND  =   0.0 temperature during run
   SMASS  =  -3.00    Nose mass-parameter (am)
   estimated Nose-frequenzy (Omega)   =  0.10E-29 period in steps = 0.13E+47 mass=  -0.467E-27a.u.
   SCALEE = 1.0000    scale energy and forces
   NPACO  =    256;   APACO  = 10.0  distance and # of slots for P.C.
   PSTRESS=    0.0 pullay stress

  Mass of Ions in am
   POMASS = 106.42 16.00
  Ionic Valenz
   ZVAL   =  16.00  6.00
  Atomic Wigner-Seitz radii
   RWIGS  =  -1.00 -1.00
  virtual crystal weights 
   VCA    =   1.00  1.00
   NELECT =      56.0000    total number of electrons
   NUPDOWN=      -1.0000    fix difference up-down

 DOS related values:
   EMIN   =  10.00;   EMAX   =-10.00  energy-range for DOS
   EFERMI =   0.00;   METHOD = LEGACY      
   ISMEAR =     0;   SIGMA  =   0.05  broadening in eV -4-tet -1-fermi 0-gaus

 Electronic relaxation 2 (details)
   IALGO  =     38    algorithm
   LDIAG  =      T    sub-space diagonalisation (order eigenvalues)
   LSUBROT=      F    optimize rotation matrix (better conditioning)
   TURBO    =      0    0=normal 1=particle mesh
   IRESTART =      0    0=no restart 2=restart with 2 vectors
   NREBOOT  =      0    no. of reboots
   NMIN     =      0    reboot dimension
   EREF     =   0.00    reference energy to select bands
   IMIX   =      4    mixing-type and parameters
     AMIX     =   0.40;   BMIX     =  1.00
     AMIX_MAG =   1.60;   BMIX_MAG =  1.00
     AMIN     =   0.10
     WC   =   100.;   INIMIX=   1;  MIXPRE=   1;  MAXMIX= -45

 Intra band minimization:
   WEIMIN = 0.0000     energy-eigenvalue tresh-hold
   EBREAK =  0.69E-08  absolut break condition
   DEPER  =   0.30     relativ break condition  

   TIME   =   0.40     timestep for ELM

  volume/ion in A,a.u.               =      10.72        72.37
  Fermi-wavevector in a.u.,A,eV,Ry     =   1.563040  2.953718 33.240331  2.443095
  Thomas-Fermi vector in A             =   2.665870
 
 Write flags
   LWAVE        =      F    write WAVECAR
   LDOWNSAMPLE  =      F    k-point downsampling of WAVECAR
   LCHARG       =      F    write CHGCAR
   LVTOT        =      F    write LOCPOT, total local potential
   LVHAR        =      F    write LOCPOT, Hartree potential only
   WRT_POTENTIAL= false  ! write potential to hdf5 file
   LELF         =      F    write electronic localiz. function (ELF)
   LORBIT       =     11    0 simple, 1 ext, 2 COOP (PROOUT), +10 PAW based schemes


 Dipole corrections
   LMONO      =      F    monopole corrections only (constant potential shift)
   LDIPOL     =      F    correct potential (dipole corrections)
   IDIPOL     =      0    1-x, 2-y, 3-z, 4-all directions 
   EPSILON    =  1.0000000 bulk dielectric constant
   LVACPOTAV  =      F  vacuum potentials using an averaging scheme for the charge density
   VACPOTFLAT =  0.1000000 required flatness to determine vacuum potential
 Exchange correlation treatment:
   GGA     = PE    functional components
   XC_C    = 1    coefficients multiplying the functional components
   LIBXC   =     F    Libxc                    
   VOSKOWN =     0    Vosko Wilk Nusair interpolation
   LHFCALC =     F    Hartree Fock is set to
   LHFONE  =     F    Hartree Fock one center treatment
   AEXX    =    0.0000 exact exchange contribution

 Parameters of functionals:
   PE:
     No parameter
 
 Van der Waals corrections
   IVDW    =    12    specifies the selected vdW correction

 Linear response parameters
   LEPSILON=     F    determine dielectric tensor
   LRPA    =     F    only Hartree local field effects (RPA)
   LNABLA  =     F    use nabla operator in PAW spheres
   LVEL    =     F    velocity operator in full k-point grid
   CSHIFT  =0.1000    complex shift for real part using Kramers Kronig
   OMEGAMAX=  -1.0    maximum frequency
   DEG_THRESHOLD= 0.2000000E-02 threshold for treating states as degnerate
   RTIME   =   -0.100 relaxation time in fs
  (WPLASMAI=    0.000 imaginary part of plasma frequency in eV, 0.658/RTIME)
   DFIELD  = 0.0000000 0.0000000 0.0000000 field for delta impulse in time
 
  Optional k-point grid parameters
   LKPOINTS_OPT  =     F    use optional k-point grid
   KPOINTS_OPT_MODE=     1    mode for optional k-point grid
 
 Orbital magnetization related:
   ORBITALMAG=     F  switch on orbital magnetization
   LCHIMAG   =     F  perturbation theory with respect to B field
   DQ        =  0.001000  dq finite difference perturbation B field
   LLRAUG    =     F  two centre corrections for induced B field
   LBONE     =     F  B-component reconstruction in AE one-centre
   LVGVCALC  =     T  calculate vGv susceptibility
   LVGVAPPL  =     F  apply vGv susceptibility instead of pGv for G=0

 Random number generation:
   RANDOM_GENERATOR = DEFAULT
   PCG_SEED         = not used


--------------------------------------------------------------------------------------------------------


 Static calculation
 charge density and potential will be updated during run
 spin polarized calculation
 Variant of blocked Davidson
 Davidson routine will perform the subspace rotation
 perform sub-space diagonalisation
    after iterative eigenvector-optimisation
 modified Broyden-mixing scheme, WC =      100.0
 initial mixing is a Kerker type mixing with AMIX =  0.4000 and BMIX =      1.0000
 Hartree-type preconditioning will be used
 using additional bands             8
 reciprocal scheme for non local part
 use partial core corrections
 calculate Harris-corrections to forces 
   (improved forces if not selfconsistent)
 use gradient corrections 
 use of overlap-Matrix (Vanderbilt PP)
 Gauss-broadening in eV      SIGMA  =   0.05


--------------------------------------------------------------------------------------------------------


  energy-cutoff  :      520.00
  volume of cell :       64.34
      direct lattice vectors                 reciprocal lattice vectors
     4.522230460  0.000000000  0.000000000     0.221129818 -0.000000000  0.000000000
     0.000000000  4.522230460  0.000000000     0.000000000  0.221129818  0.000000000
     0.000000000  0.000000000  3.146273630    -0.000000000 -0.000000000  0.317836310

  length of vectors
     4.522230460  4.522230460  3.146273630     0.221129818  0.221129818  0.317836310


 
 k-points in units of 2pi/SCALE and weight: Automatic mesh                          
   0.00000000  0.00000000  0.00000000       0.003
   0.03685497  0.00000000  0.00000000       0.014
   0.07370994  0.00000000  0.00000000       0.014
   0.11056491  0.00000000  0.00000000       0.007
   0.03685497  0.03685497  0.00000000       0.014
   0.07370994  0.03685497  0.00000000       0.028
   0.11056491  0.03685497  0.00000000       0.014
   0.07370994  0.07370994  0.00000000       0.014
   0.11056491  0.07370994  0.00000000       0.014
   0.11056491  0.11056491  0.00000000       0.003
   0.00000000  0.00000000  0.03972954       0.007
   0.03685497  0.00000000  0.03972954       0.028
   0.07370994  0.00000000  0.03972954       0.028
   0.11056491  0.00000000  0.03972954       0.014
   0.03685497  0.03685497  0.03972954       0.028
   0.07370994  0.03685497  0.03972954       0.056
   0.11056491  0.03685497  0.03972954       0.028
   0.07370994  0.07370994  0.03972954       0.028
   0.11056491  0.07370994  0.03972954       0.028
   0.11056491  0.11056491  0.03972954       0.007
   0.00000000  0.00000000  0.07945908       0.007
   0.03685497  0.00000000  0.07945908       0.028
   0.07370994  0.00000000  0.07945908       0.028
   0.11056491  0.00000000  0.07945908       0.014
   0.03685497  0.03685497  0.07945908       0.028
   0.07370994  0.03685497  0.07945908       0.056
   0.11056491  0.03685497  0.07945908       0.028
   0.07370994  0.07370994  0.07945908       0.028
   0.11056491  0.07370994  0.07945908       0.028
   0.11056491  0.11056491  0.07945908       0.007
   0.00000000  0.00000000  0.11918862       0.007
   0.03685497  0.00000000  0.11918862       0.028
   0.07370994  0.00000000  0.11918862       0.028
   0.11056491  0.00000000  0.11918862       0.014
   0.03685497  0.03685497  0.11918862       0.028
   0.07370994  0.03685497  0.11918862       0.056
   0.11056491  0.03685497  0.11918862       0.028
   0.07370994  0.07370994  0.11918862       0.028
   0.11056491  0.07370994  0.11918862       0.028
   0.11056491  0.11056491  0.11918862       0.007
   0.00000000  0.00000000  0.15891815       0.003
   0.03685497  0.00000000  0.15891815       0.014
   0.07370994  0.00000000  0.15891815       0.014
   0.11056491  0.00000000  0.15891815       0.007
   0.03685497  0.03685497  0.15891815       0.014
   0.07370994  0.03685497  0.15891815       0.028
   0.11056491  0.03685497  0.15891815       0.014
   0.07370994  0.07370994  0.15891815       0.014
   0.11056491  0.07370994  0.15891815       0.014
   0.11056491  0.11056491  0.15891815       0.003
 
 k-points in reciprocal lattice and weights: Automatic mesh                          
   0.00000000  0.00000000  0.00000000       0.003
   0.16666667  0.00000000  0.00000000       0.014
   0.33333333  0.00000000  0.00000000       0.014
   0.50000000  0.00000000  0.00000000       0.007
   0.16666667  0.16666667  0.00000000       0.014
   0.33333333  0.16666667  0.00000000       0.028
   0.50000000  0.16666667  0.00000000       0.014
   0.33333333  0.33333333  0.00000000       0.014
   0.50000000  0.33333333  0.00000000       0.014
   0.50000000  0.50000000  0.00000000       0.003
   0.00000000  0.00000000  0.12500000       0.007
   0.16666667  0.00000000  0.12500000       0.028
   0.33333333  0.00000000  0.12500000       0.028
   0.50000000  0.00000000  0.12500000       0.014
   0.16666667  0.16666667  0.12500000       0.028
   0.33333333  0.16666667  0.12500000       0.056
   0.50000000  0.16666667  0.12500000       0.028
   0.33333333  0.33333333  0.12500000       0.028
   0.50000000  0.33333333  0.12500000       0.028
   0.50000000  0.50000000  0.12500000       0.007
   0.00000000  0.00000000  0.25000000       0.007
   0.16666667  0.00000000  0.25000000       0.028
   0.33333333  0.00000000  0.25000000       0.028
   0.50000000  0.00000000  0.25000000       0.014
   0.16666667  0.16666667  0.25000000       0.028
   0.33333333  0.16666667  0.25000000       0.056
   0.50000000  0.16666667  0.25000000       0.028
   0.33333333  0.33333333  0.25000000       0.028
   0.50000000  0.33333333  0.25000000       0.028
   0.50000000  0.50000000  0.25000000       0.007
   0.00000000  0.00000000  0.37500000       0.007
   0.16666667  0.00000000  0.37500000       0.028
   0.33333333  0.00000000  0.37500000       0.028
   0.50000000  0.00000000  0.37500000       0.014
   0.16666667  0.16666667  0.37500000       0.028
   0.33333333  0.16666667  0.37500000       0.056
   0.50000000  0.16666667  0.37500000       0.028
   0.33333333  0.33333333  0.37500000       0.028
   0.50000000  0.33333333  0.37500000       0.028
   0.50000000  0.50000000  0.37500000       0.007
   0.00000000  0.00000000  0.50000000       0.003
   0.16666667  0.00000000  0.50000000       0.014
   0.33333333  0.00000000  0.50000000       0.014
   0.50000000  0.00000000  0.50000000       0.007
   0.16666667  0.16666667  0.50000000       0.014
   0.33333333  0.16666667  0.50000000       0.028
   0.50000000  0.16666667  0.50000000       0.014
   0.33333333  0.33333333  0.50000000       0.014
   0.50000000  0.33333333  0.50000000       0.014
   0.50000000  0.50000000  0.50000000       0.003
 
 position of ions in fractional coordinates (direct lattice) 
   0.50000000  0.50000000  0.50000000
   0.00000000  0.00000000  0.00000000
   0.80815192  0.19184808  0.50000000
   0.19184808  0.80815192  0.50000000
   0.30815192  0.30815192  0.00000000
   0.69184808  0.69184808  0.00000000
 
 position of ions in cartesian coordinates  (Angst):
   2.26111523  2.26111523  1.57313682
   0.00000000  0.00000000  0.00000000
   3.65464923  0.86758123  1.57313682
   0.86758123  3.65464923  1.57313682
   1.39353400  1.39353400  0.00000000
   3.12869646  3.12869646  0.00000000
 


--------------------------------------------------------------------------------------------------------


 k-point     1 :   0.0000 0.0000 0.0000  plane waves:    1751
 k-point     2 :   0.1667 0.0000 0.0000  plane waves:    1735
 k-point     3 :   0.3333 0.0000 0.0000  plane waves:    1727
 k-point     4 :   0.5000 0.0000 0.0000  plane waves:    1740
 k-point     5 :   0.1667 0.1667 0.0000  plane waves:    1740
 k-point     6 :   0.3333 0.1667 0.0000  plane waves:    1729
 k-point     7 :   0.5000 0.1667 0.0000  plane waves:    1720
 k-point     8 :   0.3333 0.3333 0.0000  plane waves:    1732
 k-point     9 :   0.5000 0.3333 0.0000  plane waves:    1720
 k-point    10 :   0.5000 0.5000 0.0000  plane waves:    1720
 k-point    11 :   0.0000 0.0000 0.1250  plane waves:    1735
 k-point    12 :   0.1667 0.0000 0.1250  plane waves:    1732
 k-point    13 :   0.3333 0.0000 0.1250  plane waves:    1726
 k-point    14 :   0.5000 0.0000 0.1250  plane waves:    1734
 k-point    15 :   0.1667 0.1667 0.1250  plane waves:    1732
 k-point    16 :   0.3333 0.1667 0.1250  plane waves:    1723
 k-point    17 :   0.5000 0.1667 0.1250  plane waves:    1730
 k-point    18 :   0.3333 0.3333 0.1250  plane waves:    1723
 k-point    19 :   0.5000 0.3333 0.1250  plane waves:    1722
 k-point    20 :   0.5000 0.5000 0.1250  plane waves:    1720
 k-point    21 :   0.0000 0.0000 0.2500  plane waves:    1720
 k-point    22 :   0.1667 0.0000 0.2500  plane waves:    1733
 k-point    23 :   0.3333 0.0000 0.2500  plane waves:    1737
 k-point    24 :   0.5000 0.0000 0.2500  plane waves:    1726
 k-point    25 :   0.1667 0.1667 0.2500  plane waves:    1733
 k-point    26 :   0.3333 0.1667 0.2500  plane waves:    1739
 k-point    27 :   0.5000 0.1667 0.2500  plane waves:    1738
 k-point    28 :   0.3333 0.3333 0.2500  plane waves:    1726
 k-point    29 :   0.5000 0.3333 0.2500  plane waves:    1726
 k-point    30 :   0.5000 0.5000 0.2500  plane waves:    1724
 k-point    31 :   0.0000 0.0000 0.3750  plane waves:    1756
 k-point    32 :   0.1667 0.0000 0.3750  plane waves:    1743
 k-point    33 :   0.3333 0.0000 0.3750  plane waves:    1741
 k-point    34 :   0.5000 0.0000 0.3750  plane waves:    1740
 k-point    35 :   0.1667 0.1667 0.3750  plane waves:    1734
 k-point    36 :   0.3333 0.1667 0.3750  plane waves:    1736
 k-point    37 :   0.5000 0.1667 0.3750  plane waves:    1734
 k-point    38 :   0.3333 0.3333 0.3750  plane waves:    1729
 k-point    39 :   0.5000 0.3333 0.3750  plane waves:    1732
 k-point    40 :   0.5000 0.5000 0.3750  plane waves:    1728
 k-point    41 :   0.0000 0.0000 0.5000  plane waves:    1740
 k-point    42 :   0.1667 0.0000 0.5000  plane waves:    1736
 k-point    43 :   0.3333 0.0000 0.5000  plane waves:    1750
 k-point    44 :   0.5000 0.0000 0.5000  plane waves:    1732
 k-point    45 :   0.1667 0.1667 0.5000  plane waves:    1744
 k-point    46 :   0.3333 0.1667 0.5000  plane waves:    1740
 k-point    47 :   0.5000 0.1667 0.5000  plane waves:    1732
 k-point    48 :   0.3333 0.3333 0.5000  plane waves:    1726
 k-point    49 :   0.5000 0.3333 0.5000  plane waves:    1740
 k-point    50 :   0.5000 0.5000 0.5000  plane waves:    1728

 maximum and minimum number of plane-waves per node :      1756     1720

 maximum number of plane-waves:      1756
 maximum index in each direction: 
   IXMAX=    8   IYMAX=    8   IZMAX=    5
   IXMIN=   -8   IYMIN=   -8   IZMIN=   -6


 serial   3D FFT for wavefunctions
 parallel 3D FFT for charge:
    minimum data exchange during FFTs selected (reduces bandwidth)


 total amount of memory used by VASP MPI-rank0    98974. kBytes
=======================================================================

   base      :      30000. kBytes
   nonl-proj :      25454. kBytes
   fftplans  :       9397. kBytes
   grid      :       7672. kBytes
   one-center:        186. kBytes
   wavefun   :      26265. kBytes
 
     INWAV:  cpu time      0.0000: real time      0.0000
 Broyden mixing: mesh for mixing (old mesh)
   NGX = 17   NGY = 17   NGZ = 11
  (NGX  = 72   NGY  = 72   NGZ  = 48)
  gives a total of   3179 points

 initial charge density was supplied:
 charge density of overlapping atoms calculated
 number of electron      56.0000000 magnetization       6.0000000
 keeping initial charge density in first step


--------------------------------------------------------------------------------------------------------


 Maximum index for augmentation-charges         37643 (set IRDMAX)


--------------------------------------------------------------------------------------------------------


 First call to EWALD:  gamma=   0.442
 Maximum number of real-space cells 2x 2x 3
 Maximum number of reciprocal cells 3x 3x 2

    FEWALD:  cpu time      0.0004: real time      0.0004


--------------------------------------- Ionic step        1  -------------------------------------------




--------------------------------------- Iteration      1(   1)  ---------------------------------------


    POTLOK:  cpu time      0.0479: real time      0.0491
    SETDIJ:  cpu time      0.6477: real time      0.6918
     EDDAV:  cpu time      3.3879: real time      3.7920
       DOS:  cpu time      0.0006: real time      0.0006
    --------------------------------------------
      LOOP:  cpu time      4.0841: real time      4.5335

 eigenvalue-minimisations  :  7416
 total energy-change (2. order) : 0.5891757E+03  (-0.3426520E+04)
 number of electron      56.0000000 magnetization       6.0000000
 augmentation part       56.0000000 magnetization       6.0000000

 Free energy of the ion-electron system (eV)
  ---------------------------------------------------
  alpha Z        PSCENC =       302.45619847
  Ewald energy   TEWEN  =     -5214.09126118
  -Hartree energ DENC   =     -1860.07067583
  -exchange      EXHF   =         0.00000000
  -V(xc)+E(xc)   XCENC  =       277.13147676
  PAW double counting   =      5901.46612542    -5850.99266113
  entropy T*S    EENTRO =        -0.00245371
  eigenvalues    EBANDS =        60.75459830
  atomic energy  EATOM  =      6972.52437674
  Solvation  Ediel_sol  =         0.00000000
  ---------------------------------------------------
  free energy    TOTEN  =       589.17572382 eV

  energy without entropy =      589.17817754  energy(sigma->0) =      589.17695068


--------------------------------------------------------------------------------------------------------




--------------------------------------- Iteration      1(   2)  ---------------------------------------


     EDDAV:  cpu time      4.0274: real time      4.0294
       DOS:  cpu time      0.0005: real time      0.0005
    --------------------------------------------
      LOOP:  cpu time      4.0279: real time      4.0299

 eigenvalue-minimisations  :  8352
 total energy-change (2. order) :-0.5966501E+03  (-0.5746870E+03)
 number of electron      56.0000000 magnetization       6.0000000
 augmentation part       56.0000000 magnetization       6.0000000

 Free energy of the ion-electron system (eV)
  ---------------------------------------------------
  alpha Z        PSCENC =       302.45619847
  Ewald energy   TEWEN  =     -5214.09126118
  -Hartree energ DENC   =     -1860.07067583
  -exchange      EXHF   =         0.00000000
  -V(xc)+E(xc)   XCENC  =       277.13147676
  PAW double counting   =      5901.46612542    -5850.99266113
  entropy T*S    EENTRO =        -0.00286450
  eigenvalues    EBANDS =      -535.89508858
  atomic energy  EATOM  =      6972.52437674
  Solvation  Ediel_sol  =         0.00000000
  ---------------------------------------------------
  free energy    TOTEN  =        -7.47437384 eV

  energy without entropy =       -7.47150934  energy(sigma->0) =       -7.47294159


--------------------------------------------------------------------------------------------------------




--------------------------------------- Iteration      1(   3)  ---------------------------------------


     EDDAV:  cpu time      3.7319: real time      3.7325
       DOS:  cpu time      0.0006: real time      0.0006
    --------------------------------------------
      LOOP:  cpu time      3.7325: real time      3.7331

 eigenvalue-minimisations  :  7916
 total energy-change (2. order) :-0.3308980E+02  (-0.3273503E+02)
 number of electron      56.0000000 magnetization       6.0000000
 augmentation part       56.0000000 magnetization       6.0000000

 Free energy of the ion-electron system (eV)
  ---------------------------------------------------
  alpha Z        PSCENC =       302.45619847
  Ewald energy   TEWEN  =     -5214.09126118
  -Hartree energ DENC   =     -1860.07067583
  -exchange      EXHF   =         0.00000000
  -V(xc)+E(xc)   XCENC  =       277.13147676
  PAW double counting   =      5901.46612542    -5850.99266113
  entropy T*S    EENTRO =        -0.00394335
  eigenvalues    EBANDS =      -568.98381287
  atomic energy  EATOM  =      6972.52437674
  Solvation  Ediel_sol  =         0.00000000
  ---------------------------------------------------
  free energy    TOTEN  =       -40.56417698 eV

  energy without entropy =      -40.56023363  energy(sigma->0) =      -40.56220530


--------------------------------------------------------------------------------------------------------




--------------------------------------- Iteration      1(   4)  ---------------------------------------


     EDDAV:  cpu time      3.4278: real time      3.4292
       DOS:  cpu time      0.0005: real time      0.0005
    --------------------------------------------
      LOOP:  cpu time      3.4283: real time      3.4297

 eigenvalue-minimisations  :  7940
 total energy-change (2. order) :-0.4250969E+00  (-0.4244590E+00)
 number of electron      56.0000000 magnetization       6.0000000
 augmentation part       56.0000000 magnetization       6.0000000

 Free energy of the ion-electron system (eV)
  ---------------------------------------------------
  alpha Z        PSCENC =       302.45619847
  Ewald energy   TEWEN  =     -5214.09126118
  -Hartree energ DENC   =     -1860.07067583
  -exchange      EXHF   =         0.00000000
  -V(xc)+E(xc)   XCENC  =       277.13147676
  PAW double counting   =      5901.46612542    -5850.99266113
  entropy T*S    EENTRO =        -0.00411557
  eigenvalues    EBANDS =      -569.40873756
  atomic energy  EATOM  =      6972.52437674
  Solvation  Ediel_sol  =         0.00000000
  ---------------------------------------------------
  free energy    TOTEN  =       -40.98927388 eV

  energy without entropy =      -40.98515831  energy(sigma->0) =      -40.98721610


--------------------------------------------------------------------------------------------------------




--------------------------------------- Iteration      1(   5)  ---------------------------------------


     EDDAV:  cpu time      3.3511: real time      3.3524
       DOS:  cpu time      0.0005: real time      0.0005
    CHARGE:  cpu time      0.3086: real time      0.3087
    MIXING:  cpu time      0.0016: real time      0.0016
    --------------------------------------------
      LOOP:  cpu time      3.6619: real time      3.6633

 eigenvalue-minimisations  :  7724
 total energy-change (2. order) :-0.4723381E-02  (-0.4722881E-02)
 number of electron      56.0000002 magnetization       0.0868497
 augmentation part       16.7790663 magnetization      -0.0634570

 Broyden mixing:
  rms(total) = 0.28120E+01    rms(broyden)= 0.28115E+01
  rms(prec ) = 0.53313E+01
  weight for this iteration     100.00

 Free energy of the ion-electron system (eV)
  ---------------------------------------------------
  alpha Z        PSCENC =       302.45619847
  Ewald energy   TEWEN  =     -5214.09126118
  -Hartree energ DENC   =     -1860.07067583
  -exchange      EXHF   =         0.00000000
  -V(xc)+E(xc)   XCENC  =       277.13147676
  PAW double counting   =      5901.46612542    -5850.99266113
  entropy T*S    EENTRO =        -0.00412125
  eigenvalues    EBANDS =      -569.41345525
  atomic energy  EATOM  =      6972.52437674
  Solvation  Ediel_sol  =         0.00000000
  ---------------------------------------------------
  free energy    TOTEN  =       -40.99399727 eV

  energy without entropy =      -40.98987601  energy(sigma->0) =      -40.99193664


--------------------------------------------------------------------------------------------------------




--------------------------------------- Iteration      1(   6)  ---------------------------------------


    POTLOK:  cpu time      0.0472: real time      0.0473
    SETDIJ:  cpu time      0.5837: real time      0.5838
     EDDAV:  cpu time      3.3532: real time      3.3547
       DOS:  cpu time      0.0005: real time      0.0005
    CHARGE:  cpu time      0.3154: real time      0.3155
    MIXING:  cpu time      0.0016: real time      0.0016
    --------------------------------------------
      LOOP:  cpu time      4.3015: real time      4.3033

 eigenvalue-minimisations  :  7720
 total energy-change (2. order) : 0.5358048E+01  (-0.5160142E+01)
 number of electron      56.0000002 magnetization      -0.2998554
 augmentation part       18.3648872 magnetization       0.0187967

 Broyden mixing:
  rms(total) = 0.15611E+01    rms(broyden)= 0.15604E+01
  rms(prec ) = 0.33655E+01
  weight for this iteration     100.00

 eigenvalues of (default mixing * dielectric matrix)
  average eigenvalue GAMMA=   0.7318
  0.7318

 Free energy of the ion-electron system (eV)
  ---------------------------------------------------
  alpha Z        PSCENC =       302.45619847
  Ewald energy   TEWEN  =     -5214.09126118
  -Hartree energ DENC   =     -1784.46747718
  -exchange      EXHF   =         0.00000000
  -V(xc)+E(xc)   XCENC  =       276.15804083
  PAW double counting   =      6060.93535483    -6024.76936676
  entropy T*S    EENTRO =        -0.00884516
  eigenvalues    EBANDS =      -624.37297009
  atomic energy  EATOM  =      6972.52437674
  Solvation  Ediel_sol  =         0.00000000
  ---------------------------------------------------
  free energy    TOTEN  =       -35.63594951 eV

  energy without entropy =      -35.62710436  energy(sigma->0) =      -35.63152694


--------------------------------------------------------------------------------------------------------




--------------------------------------- Iteration      1(   7)  ---------------------------------------


    POTLOK:  cpu time      0.0462: real time      0.0463
    SETDIJ:  cpu time      0.5835: real time      0.5836
     EDDAV:  cpu time      3.3016: real time      3.3025
       DOS:  cpu time      0.0005: real time      0.0005
    CHARGE:  cpu time      0.3074: real time      0.3075
    MIXING:  cpu time      0.0016: real time      0.0016
    --------------------------------------------
      LOOP:  cpu time      4.2407: real time      4.2419

 eigenvalue-minimisations  :  7564
 total energy-change (2. order) : 0.3443956E+01  (-0.1569311E+01)
 number of electron      56.0000002 magnetization      -0.3521918
 augmentation part       17.4103560 magnetization      -0.1855489

 Broyden mixing:
  rms(total) = 0.53894E+00    rms(broyden)= 0.53875E+00
  rms(prec ) = 0.84450E+00
  weight for this iteration     100.00

 eigenvalues of (default mixing * dielectric matrix)
  average eigenvalue GAMMA=   0.7244
  0.9174  0.5315

 Free energy of the ion-electron system (eV)
  ---------------------------------------------------
  alpha Z        PSCENC =       302.45619847
  Ewald energy   TEWEN  =     -5214.09126118
  -Hartree energ DENC   =     -1819.84096995
  -exchange      EXHF   =         0.00000000
  -V(xc)+E(xc)   XCENC  =       276.58300512
  PAW double counting   =      6242.95104091    -6204.42293850
  entropy T*S    EENTRO =        -0.00531282
  eigenvalues    EBANDS =      -588.34613204
  atomic energy  EATOM  =      6972.52437674
  Solvation  Ediel_sol  =         0.00000000
  ---------------------------------------------------
  free energy    TOTEN  =       -32.19199325 eV

  energy without entropy =      -32.18668043  energy(sigma->0) =      -32.18933684


--------------------------------------------------------------------------------------------------------




--------------------------------------- Iteration      1(   8)  ---------------------------------------


    POTLOK:  cpu time      0.0472: real time      0.0472
    SETDIJ:  cpu time      0.5823: real time      0.5824
     EDDAV:  cpu time      3.3203: real time      3.3216
       DOS:  cpu time      0.0005: real time      0.0006
    CHARGE:  cpu time      0.3093: real time      0.3093
    MIXING:  cpu time      0.0015: real time      0.0015
    --------------------------------------------
      LOOP:  cpu time      4.2611: real time      4.2626

 eigenvalue-minimisations  :  7624
 total energy-change (2. order) : 0.5125341E-01  (-0.1274193E+00)
 number of electron      56.0000002 magnetization      -0.3043828
 augmentation part       17.5353167 magnetization      -0.1279331

 Broyden mixing:
  rms(total) = 0.30121E+00    rms(broyden)= 0.30120E+00
  rms(prec ) = 0.41700E+00
  weight for this iteration     100.00

 eigenvalues of (default mixing * dielectric matrix)
  average eigenvalue GAMMA=   1.0441
  0.5595  0.8664  1.7065

 Free energy of the ion-electron system (eV)
  ---------------------------------------------------
  alpha Z        PSCENC =       302.45619847
  Ewald energy   TEWEN  =     -5214.09126118
  -Hartree energ DENC   =     -1808.59486973
  -exchange      EXHF   =         0.00000000
  -V(xc)+E(xc)   XCENC  =       276.19530278
  PAW double counting   =      6362.45717728    -6326.19793940
  entropy T*S    EENTRO =        -0.00509217
  eigenvalues    EBANDS =      -596.88463262
  atomic energy  EATOM  =      6972.52437674
  Solvation  Ediel_sol  =         0.00000000
  ---------------------------------------------------
  free energy    TOTEN  =       -32.14073984 eV

  energy without entropy =      -32.13564767  energy(sigma->0) =      -32.13819376


--------------------------------------------------------------------------------------------------------




--------------------------------------- Iteration      1(   9)  ---------------------------------------


    POTLOK:  cpu time      0.0463: real time      0.0464
    SETDIJ:  cpu time      0.5831: real time      0.5832
     EDDAV:  cpu time      6.7155: real time      7.4333
       DOS:  cpu time      0.0005: real time      0.0005
    CHARGE:  cpu time      0.3121: real time      0.3122
    MIXING:  cpu time      0.0015: real time      0.0015
    --------------------------------------------
      LOOP:  cpu time      7.6590: real time      8.3770

 eigenvalue-minimisations  :  7832
 total energy-change (2. order) : 0.2647207E-01  (-0.1303460E-01)
 number of electron      56.0000002 magnetization      -0.2910995
 augmentation part       17.6117262 magnetization      -0.1119777

 Broyden mixing:
  rms(total) = 0.84647E-01    rms(broyden)= 0.84632E-01
  rms(prec ) = 0.15259E+00
  weight for this iteration     100.00

 eigenvalues of (default mixing * dielectric matrix)
  average eigenvalue GAMMA=   1.1380
  2.3705  0.8642  0.5804  0.7368

 Free energy of the ion-electron system (eV)
  ---------------------------------------------------
  alpha Z        PSCENC =       302.45619847
  Ewald energy   TEWEN  =     -5214.09126118
  -Hartree energ DENC   =     -1802.22276630
  -exchange      EXHF   =         0.00000000
  -V(xc)+E(xc)   XCENC  =       276.10244955
  PAW double counting   =      6551.01684111    -6517.04961961
  entropy T*S    EENTRO =        -0.00556263
  eigenvalues    EBANDS =      -600.84492391
  atomic energy  EATOM  =      6972.52437674
  Solvation  Ediel_sol  =         0.00000000
  ---------------------------------------------------
  free energy    TOTEN  =       -32.11426777 eV

  energy without entropy =      -32.10870514  energy(sigma->0) =      -32.11148646


--------------------------------------------------------------------------------------------------------




--------------------------------------- Iteration      1(  10)  ---------------------------------------


    POTLOK:  cpu time      0.0463: real time      0.0463
    SETDIJ:  cpu time      0.5886: real time      0.5886
     EDDAV:  cpu time      6.4502: real time      7.5049
       DOS:  cpu time      0.0005: real time      0.0005
    CHARGE:  cpu time      0.3096: real time      0.3097
    MIXING:  cpu time      0.0016: real time      0.0016
    --------------------------------------------
      LOOP:  cpu time      7.3968: real time      8.4516

 eigenvalue-minimisations  :  7664
 total energy-change (2. order) : 0.3094336E-02  (-0.1789177E-02)
 number of electron      56.0000002 magnetization      -0.3000185
 augmentation part       17.5838443 magnetization      -0.1214470

 Broyden mixing:
  rms(total) = 0.27302E-01    rms(broyden)= 0.27297E-01
  rms(prec ) = 0.42819E-01
  weight for this iteration     100.00

 eigenvalues of (default mixing * dielectric matrix)
  average eigenvalue GAMMA=   1.1199
  2.5316  0.9349  0.9349  0.6217  0.5763

 Free energy of the ion-electron system (eV)
  ---------------------------------------------------
  alpha Z        PSCENC =       302.45619847
  Ewald energy   TEWEN  =     -5214.09126118
  -Hartree energ DENC   =     -1803.02575885
  -exchange      EXHF   =         0.00000000
  -V(xc)+E(xc)   XCENC  =       276.12075230
  PAW double counting   =      6598.69309601    -6564.87398729
  entropy T*S    EENTRO =        -0.00536689
  eigenvalues    EBANDS =      -599.90922274
  atomic energy  EATOM  =      6972.52437674
  Solvation  Ediel_sol  =         0.00000000
  ---------------------------------------------------
  free energy    TOTEN  =       -32.11117343 eV

  energy without entropy =      -32.10580654  energy(sigma->0) =      -32.10848999


--------------------------------------------------------------------------------------------------------




--------------------------------------- Iteration      1(  11)  ---------------------------------------


    POTLOK:  cpu time      0.0461: real time      0.0462
    SETDIJ:  cpu time      0.5844: real time      0.5845
     EDDAV:  cpu time      5.6128: real time      5.8595
       DOS:  cpu time      0.0005: real time      0.0005
    CHARGE:  cpu time      0.3156: real time      0.3157
    MIXING:  cpu time      0.0016: real time      0.0016
    --------------------------------------------
      LOOP:  cpu time      6.5611: real time      6.8081

 eigenvalue-minimisations  :  7676
 total energy-change (2. order) :-0.2063438E-04  (-0.2007737E-03)
 number of electron      56.0000002 magnetization      -0.3170875
 augmentation part       17.5781219 magnetization      -0.1342256

 Broyden mixing:
  rms(total) = 0.11797E-01    rms(broyden)= 0.11793E-01
  rms(prec ) = 0.17943E-01
  weight for this iteration     100.00

 eigenvalues of (default mixing * dielectric matrix)
  average eigenvalue GAMMA=   1.0863
  2.5061  1.0526  1.0526  0.5638  0.6712  0.6712

 Free energy of the ion-electron system (eV)
  ---------------------------------------------------
  alpha Z        PSCENC =       302.45619847
  Ewald energy   TEWEN  =     -5214.09126118
  -Hartree energ DENC   =     -1803.55292443
  -exchange      EXHF   =         0.00000000
  -V(xc)+E(xc)   XCENC  =       276.13386976
  PAW double counting   =      6602.36215190    -6568.43970953
  entropy T*S    EENTRO =        -0.00523840
  eigenvalues    EBANDS =      -599.49865740
  atomic energy  EATOM  =      6972.52437674
  Solvation  Ediel_sol  =         0.00000000
  ---------------------------------------------------
  free energy    TOTEN  =       -32.11119407 eV

  energy without entropy =      -32.10595567  energy(sigma->0) =      -32.10857487


--------------------------------------------------------------------------------------------------------




--------------------------------------- Iteration      1(  12)  ---------------------------------------


    POTLOK:  cpu time      0.0503: real time      0.0504
    SETDIJ:  cpu time      0.5907: real time      0.5907
     EDDAV:  cpu time      3.4038: real time      3.4056
       DOS:  cpu time      0.0005: real time      0.0005
    CHARGE:  cpu time      0.3099: real time      0.3099
    MIXING:  cpu time      0.0017: real time      0.0017
    --------------------------------------------
      LOOP:  cpu time      4.3569: real time      4.3588

 eigenvalue-minimisations  :  7764
 total energy-change (2. order) : 0.4040735E-04  (-0.2162214E-04)
 number of electron      56.0000002 magnetization      -0.3269287
 augmentation part       17.5769537 magnetization      -0.1372255

 Broyden mixing:
  rms(total) = 0.52234E-02    rms(broyden)= 0.52200E-02
  rms(prec ) = 0.72975E-02
  weight for this iteration     100.00

 eigenvalues of (default mixing * dielectric matrix)
  average eigenvalue GAMMA=   1.2107
  2.5059  2.0224  1.1045  0.8508  0.7738  0.5675  0.6503

 Free energy of the ion-electron system (eV)
  ---------------------------------------------------
  alpha Z        PSCENC =       302.45619847
  Ewald energy   TEWEN  =     -5214.09126118
  -Hartree energ DENC   =     -1804.13473440
  -exchange      EXHF   =         0.00000000
  -V(xc)+E(xc)   XCENC  =       276.15672447
  PAW double counting   =      6602.22667445    -6568.15688579
  entropy T*S    EENTRO =        -0.00509659
  eigenvalues    EBANDS =      -599.08714982
  atomic energy  EATOM  =      6972.52437674
  Solvation  Ediel_sol  =         0.00000000
  ---------------------------------------------------
  free energy    TOTEN  =       -32.11115366 eV

  energy without entropy =      -32.10605707  energy(sigma->0) =      -32.10860536


--------------------------------------------------------------------------------------------------------




--------------------------------------- Iteration      1(  13)  ---------------------------------------


    POTLOK:  cpu time      0.0463: real time      0.0464
    SETDIJ:  cpu time      0.5804: real time      0.5810
     EDDAV:  cpu time      3.3106: real time      3.3122
       DOS:  cpu time      0.0005: real time      0.0005
    CHARGE:  cpu time      0.3092: real time      0.3094
    MIXING:  cpu time      0.0016: real time      0.0016
    --------------------------------------------
      LOOP:  cpu time      4.2486: real time      4.2511

 eigenvalue-minimisations  :  7660
 total energy-change (2. order) :-0.1562282E-04  (-0.7979419E-05)
 number of electron      56.0000002 magnetization      -0.3274314
 augmentation part       17.5769402 magnetization      -0.1345899

 Broyden mixing:
  rms(total) = 0.12474E-02    rms(broyden)= 0.12409E-02
  rms(prec ) = 0.15249E-02
  weight for this iteration     100.00

 eigenvalues of (default mixing * dielectric matrix)
  average eigenvalue GAMMA=   1.2174
  2.6819  2.2814  1.0540  0.9690  0.7884  0.7629  0.5662  0.6357

 Free energy of the ion-electron system (eV)
  ---------------------------------------------------
  alpha Z        PSCENC =       302.45619847
  Ewald energy   TEWEN  =     -5214.09126118
  -Hartree energ DENC   =     -1804.38819504
  -exchange      EXHF   =         0.00000000
  -V(xc)+E(xc)   XCENC  =       276.16867903
  PAW double counting   =      6603.77282104    -6569.64269652
  entropy T*S    EENTRO =        -0.00503485
  eigenvalues    EBANDS =      -598.90605697
  atomic energy  EATOM  =      6972.52437674
  Solvation  Ediel_sol  =         0.00000000
  ---------------------------------------------------
  free energy    TOTEN  =       -32.11116928 eV

  energy without entropy =      -32.10613443  energy(sigma->0) =      -32.10865186


--------------------------------------------------------------------------------------------------------




--------------------------------------- Iteration      1(  14)  ---------------------------------------


    POTLOK:  cpu time      0.0459: real time      0.0460
    SETDIJ:  cpu time      0.5822: real time      0.5823
     EDDAV:  cpu time      2.8644: real time      2.8653
       DOS:  cpu time      0.0005: real time      0.0005
    CHARGE:  cpu time      0.3106: real time      0.3106
    MIXING:  cpu time      0.0017: real time      0.0017
    --------------------------------------------
      LOOP:  cpu time      3.8053: real time      3.8063

 eigenvalue-minimisations  :  6072
 total energy-change (2. order) :-0.1525432E-05  (-0.2740164E-06)
 number of electron      56.0000002 magnetization      -0.3279027
 augmentation part       17.5769099 magnetization      -0.1346410

 Broyden mixing:
  rms(total) = 0.48267E-03    rms(broyden)= 0.48091E-03
  rms(prec ) = 0.69592E-03
  weight for this iteration     100.00

 eigenvalues of (default mixing * dielectric matrix)
  average eigenvalue GAMMA=   1.2066
  2.7207  2.3229  1.0914  1.0914  0.9267  0.5669  0.7551  0.7551  0.6293

 Free energy of the ion-electron system (eV)
  ---------------------------------------------------
  alpha Z        PSCENC =       302.45619847
  Ewald energy   TEWEN  =     -5214.09126118
  -Hartree energ DENC   =     -1804.40053262
  -exchange      EXHF   =         0.00000000
  -V(xc)+E(xc)   XCENC  =       276.16900686
  PAW double counting   =      6603.81474229    -6569.67837726
  entropy T*S    EENTRO =        -0.00502888
  eigenvalues    EBANDS =      -598.90029521
  atomic energy  EATOM  =      6972.52437674
  Solvation  Ediel_sol  =         0.00000000
  ---------------------------------------------------
  free energy    TOTEN  =       -32.11117081 eV

  energy without entropy =      -32.10614193  energy(sigma->0) =      -32.10865637


--------------------------------------------------------------------------------------------------------




--------------------------------------- Iteration      1(  15)  ---------------------------------------


    POTLOK:  cpu time      0.0466: real time      0.0467
    SETDIJ:  cpu time      0.5815: real time      0.5816
     EDDAV:  cpu time      2.4113: real time      2.4122
       DOS:  cpu time      0.0005: real time      0.0005
    --------------------------------------------
      LOOP:  cpu time      3.0399: real time      3.0410

 eigenvalue-minimisations  :  4528
 total energy-change (2. order) : 0.3404102E-06  (-0.7506351E-07)
 number of electron      56.0000002 magnetization      -0.3279027
 augmentation part       17.5769099 magnetization      -0.1346410

 Free energy of the ion-electron system (eV)
  ---------------------------------------------------
  alpha Z        PSCENC =       302.45619847
  Ewald energy   TEWEN  =     -5214.09126118
  -Hartree energ DENC   =     -1804.39964058
  -exchange      EXHF   =         0.00000000
  -V(xc)+E(xc)   XCENC  =       276.16882859
  PAW double counting   =      6603.56468368    -6569.42479995
  entropy T*S    EENTRO =        -0.00502476
  eigenvalues    EBANDS =      -598.90453147
  atomic energy  EATOM  =      6972.52437674
  Solvation  Ediel_sol  =         0.00000000
  ---------------------------------------------------
  free energy    TOTEN  =       -32.11117047 eV

  energy without entropy =      -32.10614571  energy(sigma->0) =      -32.10865809


--------------------------------------------------------------------------------------------------------




 average (electrostatic) potential at core
  the test charge radii are     1.0504  0.7215
  (the norm of the test charge is              1.0000)
       1 -80.5416       2 -80.5416       3 -70.0448       4 -70.0448       5 -70.0448
       6 -70.0448
 
 
 
 E-fermi :   5.4881     XC(G=0): -11.8267     alpha+bet :-12.2345

 val. band max:        5.4879392012   @ k =   0.1667   0.1667   0.0000
 cond. band min:       5.4948380230   @ k =   0.0000   0.0000   0.5000
 fundamental gap:      0.0068988219
 Fermi energy:         5.4881436479

 spin component 1

 k-point     1 :       0.0000    0.0000    0.0000
  band No.  band energies     occupation 
      1     -46.4069      1.00000
      2     -46.3993      1.00000
      3     -46.2993      1.00000
      4     -46.2993      1.00000
      5     -46.1641      1.00000
      6     -46.1641      1.00000
      7     -13.9400      1.00000
      8     -12.7962      1.00000
      9     -12.0079      1.00000
     10     -12.0079      1.00000
     11      -2.7576      1.00000
     12      -2.5414      1.00000
     13      -1.4124      1.00000
     14      -1.4124      1.00000
     15      -0.9736      1.00000
     16       1.7179      1.00000
     17       2.0036      1.00000
     18       2.0036      1.00000
     19       2.1638      1.00000
     20       2.2612      1.00000
     21       2.2612      1.00000
     22       2.4210      1.00000
     23       2.9489      1.00000
     24       3.3216      1.00000
     25       4.1518      1.00000
     26       4.1518      1.00000
     27       4.7114      1.00000
     28       4.8179      1.00000
     29       5.7720      0.00000
     30       8.1787      0.00000
     31       8.1787      0.00000
     32       9.1705      0.00000
     33      11.6978      0.00000
     34      15.5241      0.00000
     35      15.5241      0.00000
     36      18.3774      0.00000

 k-point     2 :       0.1667    0.0000    0.0000
  band No.  band energies     occupation 
      1     -46.4064      1.00000
      2     -46.3998      1.00000
      3     -46.2991      1.00000
      4     -46.2991      1.00000
      5     -46.1644      1.00000
      6     -46.1644      1.00000
      7     -13.8469      1.00000
      8     -12.8037      1.00000
      9     -12.1080      1.00000
     10     -12.0491      1.00000
     11      -2.5783      1.00000
     12      -2.3276      1.00000
     13      -1.3940      1.00000
     14      -1.3854      1.00000
     15      -0.8092      1.00000
     16       1.2733      1.00000
     17       1.3766      1.00000
     18       1.3969      1.00000
     19       1.9483      1.00000
     20       2.1095      1.00000
     21       2.7154      1.00000
     22       2.8485      1.00000
     23       3.2464      1.00000
     24       3.5885      1.00000
     25       3.8457      1.00000
     26       4.0988      1.00000
     27       4.7258      1.00000
     28       5.4213      0.97069
     29       5.6641      0.00000
     30       8.0719      0.00000
     31       8.1046      0.00000
     32       9.0102      0.00000
     33      12.1031      0.00000
     34      15.4849      0.00000
     35      15.6828      0.00000
     36      18.2446      0.00000

 k-point     3 :       0.3333    0.0000    0.0000
  band No.  band energies     occupation 
      1     -46.4050      1.00000
      2     -46.4012      1.00000
      3     -46.2987      1.00000
      4     -46.2987      1.00000
      5     -46.1649      1.00000
      6     -46.1649      1.00000
      7     -13.5872      1.00000
      8     -12.9105      1.00000
      9     -12.2666      1.00000
     10     -12.1519      1.00000
     11      -2.0964      1.00000
     12      -1.8276      1.00000
     13      -1.3503      1.00000
     14      -1.3339      1.00000
     15      -0.3167      1.00000
     16       0.4109      1.00000
     17       0.4645      1.00000
     18       1.1270      1.00000
     19       1.4042      1.00000
     20       1.4684      1.00000
     21       3.2865      1.00000
     22       3.3558      1.00000
     23       3.5498      1.00000
     24       3.6758      1.00000
     25       3.8856      1.00000
     26       4.0907      1.00000
     27       4.6145      1.00000
     28       5.3007      1.00000
     29       6.5862      0.00000
     30       7.8681      0.00000
     31       7.9309      0.00000
     32       8.5032      0.00000
     33      13.0942      0.00000
     34      15.1223      0.00000
     35      16.1882      0.00000
     36      17.7717      0.00000

 k-point     4 :       0.5000    0.0000    0.0000
  band No.  band energies     occupation 
      1     -46.4031      1.00000
      2     -46.4031      1.00000
      3     -46.2985      1.00000
      4     -46.2985      1.00000
      5     -46.1652      1.00000
      6     -46.1652      1.00000
      7     -13.2258      1.00000
      8     -13.2258      1.00000
      9     -12.2590      1.00000
     10     -12.2590      1.00000
     11      -1.6068      1.00000
     12      -1.6068      1.00000
     13      -1.3171      1.00000
     14      -1.3171      1.00000
     15      -0.0482      1.00000
     16      -0.0482      1.00000
     17       0.4800      1.00000
     18       0.4800      1.00000
     19       1.1520      1.00000
     20       1.1520      1.00000
     21       3.4975      1.00000
     22       3.4975      1.00000
     23       3.8167      1.00000
     24       3.8167      1.00000
     25       3.8915      1.00000
     26       3.8915      1.00000
     27       4.8861      1.00000
     28       4.8861      1.00000
     29       7.6626      0.00000
     30       7.6626      0.00000
     31       7.8010      0.00000
     32       7.8010      0.00000
     33      14.2369      0.00000
     34      14.2369      0.00000
     35      16.9799      0.00000
     36      16.9799      0.00000

 k-point     5 :       0.1667    0.1667    0.0000
  band No.  band energies     occupation 
      1     -46.4060      1.00000
      2     -46.4002      1.00000
      3     -46.2994      1.00000
      4     -46.2987      1.00000
      5     -46.1649      1.00000
      6     -46.1641      1.00000
      7     -13.7672      1.00000
      8     -12.8242      1.00000
      9     -12.2058      1.00000
     10     -12.0441      1.00000
     11      -2.6701      1.00000
     12      -1.9223      1.00000
     13      -1.4284      1.00000
     14      -1.3326      1.00000
     15      -0.6546      1.00000
     16       0.4581      1.00000
     17       1.1911      1.00000
     18       1.5988      1.00000
     19       2.2656      1.00000
     20       2.3618      1.00000
     21       2.4507      1.00000
     22       2.5897      1.00000
     23       3.1819      1.00000
     24       3.6211      1.00000
     25       3.7991      1.00000
     26       4.4119      1.00000
     27       4.6628      1.00000
     28       5.6186      0.00011
     29       5.6571      0.00000
     30       7.8993      0.00000
     31       8.1725      0.00000
     32       8.8311      0.00000
     33      12.4911      0.00000
     34      15.5698      0.00000
     35      15.7285      0.00000
     36      18.1217      0.00000

 k-point     6 :       0.3333    0.1667    0.0000
  band No.  band energies     occupation 
      1     -46.4048      1.00000
      2     -46.4014      1.00000
      3     -46.2993      1.00000
      4     -46.2985      1.00000
      5     -46.1652      1.00000
      6     -46.1644      1.00000
      7     -13.5459      1.00000
      8     -12.9568      1.00000
      9     -12.2864      1.00000
     10     -12.1189      1.00000
     11      -2.4703      1.00000
     12      -1.5639      1.00000
     13      -1.4151      1.00000
     14      -1.3165      1.00000
     15      -0.1982      1.00000
     16      -0.0324      1.00000
     17       1.0638      1.00000
     18       1.1062      1.00000
     19       1.7237      1.00000
     20       1.7833      1.00000
     21       2.9659      1.00000
     22       3.0223      1.00000
     23       3.2312      1.00000
     24       3.5763      1.00000
     25       3.9018      1.00000
     26       4.0501      1.00000
     27       4.8700      1.00000
     28       5.4635      0.75683
     29       6.4788      0.00000
     30       7.7963      0.00000
     31       8.0819      0.00000
     32       8.2942      0.00000
     33      13.4253      0.00000
     34      15.3128      0.00000
     35      16.1576      0.00000
     36      17.6779      0.00000

 k-point     7 :       0.5000    0.1667    0.0000
  band No.  band energies     occupation 
      1     -46.4031      1.00000
      2     -46.4031      1.00000
      3     -46.2988      1.00000
      4     -46.2988      1.00000
      5     -46.1649      1.00000
      6     -46.1649      1.00000
      7     -13.2399      1.00000
      8     -13.2399      1.00000
      9     -12.2307      1.00000
     10     -12.2307      1.00000
     11      -1.9757      1.00000
     12      -1.9757      1.00000
     13      -1.3607      1.00000
     14      -1.3607      1.00000
     15       0.3005      1.00000
     16       0.3005      1.00000
     17       0.7701      1.00000
     18       0.7701      1.00000
     19       1.3260      1.00000
     20       1.3260      1.00000
     21       3.3012      1.00000
     22       3.3012      1.00000
     23       3.6045      1.00000
     24       3.6045      1.00000
     25       3.6195      1.00000
     26       3.6195      1.00000
     27       5.1834      1.00000
     28       5.1834      1.00000
     29       7.4590      0.00000
     30       7.4590      0.00000
     31       7.8962      0.00000
     32       7.8962      0.00000
     33      14.4920      0.00000
     34      14.4920      0.00000
     35      16.9243      0.00000
     36      16.9243      0.00000

 k-point     8 :       0.3333    0.3333    0.0000
  band No.  band energies     occupation 
      1     -46.4040      1.00000
      2     -46.4021      1.00000
      3     -46.2997      1.00000
      4     -46.2989      1.00000
      5     -46.1649      1.00000
      6     -46.1641      1.00000
      7     -13.4309      1.00000
      8     -13.0903      1.00000
      9     -12.2564      1.00000
     10     -12.1148      1.00000
     11      -2.6508      1.00000
     12      -1.9649      1.00000
     13      -1.4603      1.00000
     14      -1.3697      1.00000
     15       0.1930      1.00000
     16       0.5220      1.00000
     17       1.1792      1.00000
     18       1.3191      1.00000
     19       2.2751      1.00000
     20       2.2925      1.00000
     21       2.4243      1.00000
     22       2.5252      1.00000
[...]
      2     -46.5089      1.00000
      3     -46.3701      1.00000
      4     -46.3701      1.00000
      5     -46.2104      1.00000
      6     -46.2104      1.00000
      7     -12.7749      1.00000
      8     -12.7749      1.00000
      9     -12.5126      1.00000
     10     -12.5126      1.00000
     11      -1.6013      1.00000
     12      -1.6013      1.00000
     13      -1.1601      1.00000
     14      -1.1601      1.00000
     15       0.3315      1.00000
     16       0.3315      1.00000
     17       0.9204      1.00000
     18       0.9204      1.00000
     19       1.6145      1.00000
     20       1.6145      1.00000
     21       2.5929      1.00000
     22       2.5929      1.00000
     23       2.6163      1.00000
     24       2.6163      1.00000
     25       3.7452      1.00000
     26       3.7452      1.00000
     27       5.1691      1.00000
     28       5.1691      1.00000
     29       5.4426      0.90115
     30       5.4426      0.90115
     31       8.3917      0.00000
     32       8.3917      0.00000
     33      16.6068      0.00000
     34      16.6068      0.00000
     35      17.6630      0.00000
     36      17.6630      0.00000

 k-point    48 :       0.3333    0.3333    0.5000
  band No.  band energies     occupation 
      1     -46.5088      1.00000
      2     -46.5085      1.00000
      3     -46.3705      1.00000
      4     -46.3701      1.00000
      5     -46.2105      1.00000
      6     -46.2104      1.00000
      7     -12.7690      1.00000
      8     -12.7349      1.00000
      9     -12.5473      1.00000
     10     -12.5156      1.00000
     11      -1.5891      1.00000
     12      -1.2630      1.00000
     13      -1.1875      1.00000
     14      -1.0131      1.00000
     15      -0.6179      1.00000
     16       0.4640      1.00000
     17       0.5569      1.00000
     18       0.8968      1.00000
     19       1.4408      1.00000
     20       1.7213      1.00000
     21       2.5873      1.00000
     22       2.6135      1.00000
     23       2.6170      1.00000
     24       3.1346      1.00000
     25       3.7508      1.00000
     26       4.5298      1.00000
     27       4.8288      1.00000
     28       5.1527      1.00000
     29       5.4226      0.96811
     30       6.4683      0.00000
     31       7.2824      0.00000
     32       8.3560      0.00000
     33      16.3584      0.00000
     34      16.8749      0.00000
     35      17.1606      0.00000
     36      18.0855      0.00000

 k-point    49 :       0.5000    0.3333    0.5000
  band No.  band energies     occupation 
      1     -46.5086      1.00000
      2     -46.5086      1.00000
      3     -46.3704      1.00000
      4     -46.3704      1.00000
      5     -46.2105      1.00000
      6     -46.2105      1.00000
      7     -12.7328      1.00000
      8     -12.7328      1.00000
      9     -12.5476      1.00000
     10     -12.5476      1.00000
     11      -1.3572      1.00000
     12      -1.3572      1.00000
     13      -1.1890      1.00000
     14      -1.1890      1.00000
     15      -0.2288      1.00000
     16      -0.2288      1.00000
     17       0.6703      1.00000
     18       0.6703      1.00000
     19       1.6064      1.00000
     20       1.6064      1.00000
     21       2.6204      1.00000
     22       2.6204      1.00000
     23       3.0731      1.00000
     24       3.0731      1.00000
     25       4.1120      1.00000
     26       4.1120      1.00000
     27       5.1009      1.00000
     28       5.1009      1.00000
     29       5.8785      0.00000
     30       5.8785      0.00000
     31       7.8292      0.00000
     32       7.8292      0.00000
     33      16.5331      0.00000
     34      16.5331      0.00000
     35      17.4342      0.00000
     36      17.4342      0.00000

 k-point    50 :       0.5000    0.5000    0.5000
  band No.  band energies     occupation 
      1     -46.5084      1.00000
      2     -46.5084      1.00000
      3     -46.3706      1.00000
      4     -46.3706      1.00000
      5     -46.2105      1.00000
      6     -46.2105      1.00000
      7     -12.7041      1.00000
      8     -12.7041      1.00000
      9     -12.5726      1.00000
     10     -12.5726      1.00000
     11      -1.2265      1.00000
     12      -1.2265      1.00000
     13      -1.0936      1.00000
     14      -1.0936      1.00000
     15      -0.5949      1.00000
     16      -0.5949      1.00000
     17       0.5644      1.00000
     18       0.5644      1.00000
     19       1.6103      1.00000
     20       1.6103      1.00000
     21       2.6257      1.00000
     22       2.6257      1.00000
     23       3.2485      1.00000
     24       3.2485      1.00000
     25       4.5641      1.00000
     26       4.5641      1.00000
     27       4.6775      1.00000
     28       4.6775      1.00000
     29       6.4645      0.00000
     30       6.4645      0.00000
     31       7.3040      0.00000
     32       7.3040      0.00000
     33      16.4030      0.00000
     34      16.4030      0.00000
     35      17.4614      0.00000
     36      17.4614      0.00000


--------------------------------------------------------------------------------------------------------


 soft charge-density along one line, spin component            1
         0         1         2         3         4         5         6         7         8         9
 total charge-density along one line
 
 soft charge-density along one line, spin component            2
         0         1         2         3         4         5         6         7         8         9
 total charge-density along one line
 
 pseudopotential strength for first ion, spin component:            1
-40.496  -0.000   0.032  10.120   0.000  -0.019   0.000   0.000
 -0.000 -40.595  -0.000   0.000  10.175   0.000   0.000   0.000
  0.032  -0.000 -40.496  -0.019   0.000  10.120   0.000   0.000
 10.120   0.000  -0.019   7.363  -0.000   0.005  -0.000  -0.000
  0.000  10.175   0.000  -0.000   7.351  -0.000  -0.000  -0.000
 -0.019   0.000  10.120   0.005  -0.000   7.363  -0.000  -0.000
  0.000   0.000   0.000  -0.000  -0.000  -0.000  -5.080  -0.000
  0.000   0.000   0.000  -0.000  -0.000  -0.000  -0.000  -5.093
 -0.000   0.000  -0.000   0.000  -0.000   0.000  -0.082   0.000
  0.000   0.000   0.000  -0.000  -0.000  -0.000  -0.000  -0.049
 -0.000  -0.000   0.000   0.000   0.000  -0.000   0.000   0.000
  0.000   0.000   0.000  -0.000  -0.000  -0.000  -5.044  -0.000
  0.000   0.000   0.000  -0.000  -0.000  -0.000  -0.000  -5.058
 -0.000   0.000  -0.000   0.000  -0.000   0.000  -0.092   0.000
  0.000   0.000   0.000  -0.000  -0.000  -0.000  -0.000  -0.055
 -0.000  -0.000   0.000   0.000   0.000  -0.000   0.000   0.000
 -0.000  -0.000  -0.000  -0.000  -0.000  -0.000  -0.012   0.000
 -0.000  -0.000  -0.000  -0.000  -0.000  -0.000  -0.025   0.000
 pseudopotential strength for first ion, spin component:            2
-40.532  -0.000   0.038  10.139   0.000  -0.022   0.000   0.000
 -0.000 -40.620  -0.000   0.000  10.188   0.000   0.000   0.000
  0.038  -0.000 -40.532  -0.022   0.000  10.139   0.000   0.000
 10.139   0.000  -0.022   7.358  -0.000   0.005  -0.000  -0.000
  0.000  10.188   0.000  -0.000   7.348  -0.000  -0.000  -0.000
 -0.022   0.000  10.139   0.005  -0.000   7.358  -0.000  -0.000
  0.000   0.000   0.000  -0.000  -0.000  -0.000  -5.097  -0.000
  0.000   0.000   0.000  -0.000  -0.000  -0.000  -0.000  -5.125
 -0.000   0.000  -0.000   0.000  -0.000   0.000  -0.082   0.000
  0.000   0.000   0.000  -0.000  -0.000  -0.000  -0.000  -0.040
 -0.000  -0.000   0.000   0.000   0.000  -0.000  -0.000   0.000
  0.000   0.000   0.000  -0.000  -0.000  -0.000  -5.063  -0.000
  0.000   0.000   0.000  -0.000  -0.000  -0.000  -0.000  -5.093
 -0.000   0.000  -0.000   0.000  -0.000   0.000  -0.091   0.000
  0.000   0.000   0.000  -0.000  -0.000  -0.000  -0.000  -0.045
 -0.000  -0.000   0.000   0.000   0.000  -0.000  -0.000   0.000
 -0.000  -0.000  -0.000  -0.000  -0.000   0.000  -0.014   0.000
 -0.000  -0.000  -0.000  -0.000  -0.000  -0.000  -0.029   0.000
 total augmentation occupancy for first ion, spin component:            1
  1.995   0.000   0.000  -0.035  -0.000   0.001   0.000   0.000   0.000   0.000   0.000   0.000   0.000   0.000   0.000   0.000
  0.000   1.995   0.000  -0.000  -0.036  -0.000   0.000   0.000   0.000   0.000   0.000   0.000   0.000   0.000   0.000   0.000
  0.000   0.000   1.995   0.001  -0.000  -0.035   0.000   0.000   0.000   0.000   0.000   0.000   0.000   0.000   0.000   0.000
 -0.035  -0.000   0.001   0.173   0.000  -0.019   0.000   0.000   0.000   0.000   0.000   0.000   0.000   0.000   0.000   0.000
 -0.000  -0.036  -0.000   0.000   0.203   0.000   0.000   0.000   0.000   0.000   0.000   0.000   0.000   0.000   0.000   0.000
  0.001  -0.000  -0.035  -0.019   0.000   0.173   0.000   0.000   0.000   0.000   0.000   0.000   0.000   0.000   0.000   0.000
  0.000   0.000   0.000   0.000   0.000   0.000   3.970   0.000   1.496   0.000   0.000  -1.954  -0.000  -1.207  -0.000  -0.000
  0.000   0.000   0.000   0.000   0.000   0.000   0.000   3.510   0.000   1.269  -0.000  -0.000  -1.654  -0.000  -0.995   0.000
  0.000   0.000   0.000   0.000   0.000   0.000   1.496   0.000   3.291   0.000   0.000  -1.180  -0.000  -1.444  -0.000  -0.000
  0.000   0.000   0.000   0.000   0.000   0.000   0.000   1.269   0.000   3.510   0.000  -0.000  -0.995  -0.000  -1.654  -0.000
  0.000   0.000   0.000   0.000   0.000   0.000   0.000  -0.000   0.000   0.000   2.105  -0.000   0.000  -0.000  -0.000  -0.593
  0.000   0.000   0.000   0.000   0.000   0.000  -1.954  -0.000  -1.180  -0.000  -0.000   1.470   0.000   0.593   0.000   0.000
  0.000   0.000   0.000   0.000   0.000   0.000  -0.000  -1.654  -0.000  -0.995   0.000   0.000   1.432   0.000   0.423  -0.000
  0.000   0.000   0.000   0.000   0.000   0.000  -1.207  -0.000  -1.444  -0.000  -0.000   0.593   0.000   1.359   0.000   0.000
  0.000   0.000   0.000   0.000   0.000   0.000  -0.000  -0.995  -0.000  -1.654  -0.000   0.000   0.423   0.000   1.432   0.000
  0.000   0.000   0.000   0.000   0.000   0.000  -0.000   0.000  -0.000  -0.000  -0.593   0.000  -0.000   0.000   0.000   1.035
  0.000   0.000   0.000   0.000   0.000   0.000  -0.207  -0.000   0.218  -0.000  -0.000   0.256   0.000  -0.298   0.000   0.000
  0.000   0.000   0.000   0.000   0.000   0.000   0.022   0.000  -0.013   0.000   0.000  -0.033  -0.000   0.037  -0.000  -0.000
 total augmentation occupancy for first ion, spin component:            2
 -0.000   0.000   0.000   0.000   0.000   0.000   0.000   0.000   0.000   0.000   0.000   0.000   0.000   0.000   0.000   0.000
  0.000   0.000   0.000   0.000   0.000   0.000   0.000   0.000   0.000   0.000   0.000   0.000   0.000   0.000   0.000   0.000
  0.000   0.000  -0.000   0.000   0.000   0.000   0.000   0.000   0.000   0.000   0.000   0.000   0.000   0.000   0.000   0.000
  0.000   0.000   0.000   0.000   0.000  -0.000   0.000   0.000   0.000   0.000   0.000   0.000   0.000   0.000   0.000   0.000
  0.000   0.000   0.000   0.000   0.000   0.000   0.000   0.000   0.000   0.000   0.000   0.000   0.000   0.000   0.000   0.000
  0.000   0.000   0.000  -0.000   0.000   0.000   0.000   0.000   0.000   0.000   0.000   0.000   0.000   0.000   0.000   0.000
  0.000   0.000   0.000   0.000   0.000   0.000   0.008   0.000   0.002   0.000   0.000  -0.005  -0.000  -0.002  -0.000  -0.000
  0.000   0.000   0.000   0.000   0.000   0.000   0.000   0.007   0.000   0.003  -0.000  -0.000   0.005  -0.000  -0.011  -0.000
  0.000   0.000   0.000   0.000   0.000   0.000   0.002   0.000   0.007   0.000   0.000  -0.002  -0.000  -0.004  -0.000  -0.000
  0.000   0.000   0.000   0.000   0.000   0.000   0.000   0.003   0.000   0.007   0.000  -0.000  -0.011  -0.000   0.005   0.000
  0.000   0.000   0.000   0.000   0.000   0.000   0.000  -0.000   0.000   0.000   0.005  -0.000  -0.000  -0.000   0.000   0.021
  0.000   0.000   0.000   0.000   0.000   0.000  -0.005  -0.000  -0.002  -0.000  -0.000   0.002   0.000   0.002   0.000   0.000
  0.000   0.000   0.000   0.000   0.000   0.000  -0.000   0.005  -0.000  -0.011  -0.000   0.000  -0.030   0.000   0.031   0.000
  0.000   0.000   0.000   0.000   0.000   0.000  -0.002  -0.000  -0.004  -0.000  -0.000   0.002   0.000   0.001   0.000   0.000
  0.000   0.000   0.000   0.000   0.000   0.000  -0.000  -0.011  -0.000   0.005   0.000   0.000   0.031   0.000  -0.030  -0.000
  0.000   0.000   0.000   0.000   0.000   0.000  -0.000  -0.000  -0.000   0.000   0.021   0.000   0.000   0.000  -0.000  -0.082
  0.000   0.000   0.000   0.000   0.000   0.000  -0.003  -0.000  -0.003  -0.000  -0.000   0.002   0.000   0.000   0.000   0.000
  0.000   0.000   0.000   0.000   0.000   0.000   0.002   0.000   0.002   0.000   0.000  -0.001  -0.000  -0.000  -0.000  -0.000


------------------------ aborting loop because EDIFF is reached ----------------------------------------





 total charge

# of ion       s       p       d       tot
------------------------------------------
    1        0.334   6.323   7.657  14.314
    2        0.334   6.323   7.657  14.314
    3        1.575   3.374   0.000   4.949
    4        1.575   3.374   0.000   4.949
    5        1.575   3.374   0.000   4.949
    6        1.575   3.374   0.000   4.949
--------------------------------------------------
tot          6.967  26.142  15.314  48.423



 magnetization (x)

# of ion       s       p       d       tot
------------------------------------------
    1        0.000   0.001  -0.067  -0.066
    2        0.000   0.001  -0.067  -0.066
    3       -0.001  -0.041   0.000  -0.042
    4       -0.001  -0.041   0.000  -0.042
    5       -0.001  -0.041   0.000  -0.042
    6       -0.001  -0.041   0.000  -0.042
--------------------------------------------------
tot         -0.002  -0.163  -0.134  -0.299
 
    CHARGE:  cpu time      0.3073: real time      0.3076
    FORLOC:  cpu time      0.0015: real time      0.0015
    FORNL :  cpu time      0.6162: real time      0.6162
    FORCOR:  cpu time      0.6274: real time      0.6277
    FORHAR:  cpu time      0.0057: real time      0.0057
    MIXING:  cpu time      0.0016: real time      0.0016
    OFIELD:  cpu time      0.0000: real time      0.0000

 ---------------------------------------------------------------------------------------------

         DFTD3 V3.0 Rev 1        
 DF pbe       
 parameters
 k1-k3        =   16.0000    1.3333   -4.0000
 Edisp (eV)   -1.41402

 E6    (eV) :    -0.8848
 E8    (eV) :    -0.5293
 % E8        : 37.43
    FORVDW:  cpu time      0.0124: real time      0.0124

 VOLUME and BASIS-vectors are now :
 -----------------------------------------------------------------------------
  energy-cutoff  :      520.00
  volume of cell :       64.34
      direct lattice vectors                 reciprocal lattice vectors
     4.522230460  0.000000000  0.000000000     0.221129818 -0.000000000  0.000000000
     0.000000000  4.522230460  0.000000000     0.000000000  0.221129818  0.000000000
     0.000000000  0.000000000  3.146273630    -0.000000000 -0.000000000  0.317836310

  length of vectors
     4.522230460  4.522230460  3.146273630     0.221129818  0.221129818  0.317836310


 FORCES acting on ions
    electron-ion (+dipol)            ewald-force                    non-local-force                 convergence-correction
 -----------------------------------------------------------------------------------------------
   0.204E-11 0.725E-11 0.680E-11   0.284E-13 0.000E+00 0.158E-13   -.527E-24 0.000E+00 0.000E+00   0.687E-13 -.772E-14 -.138E-13
   -.779E-14 0.142E-13 -.129E-11   0.284E-13 0.114E-12 -.100E-13   0.117E-23 0.000E+00 0.000E+00   0.956E-13 0.125E-12 0.989E-14
   0.374E+02 -.374E+02 0.604E-11   -.386E+02 0.386E+02 0.163E-13   0.119E+01 -.119E+01 -.555E-16   0.501E-04 -.501E-04 0.298E-13
   -.374E+02 0.374E+02 0.596E-12   0.386E+02 -.386E+02 -.574E-14   -.119E+01 0.119E+01 0.555E-16   -.501E-04 0.501E-04 -.253E-13
   0.374E+02 0.374E+02 -.108E-07   -.386E+02 -.386E+02 0.191E-12   0.119E+01 0.119E+01 0.139E-15   0.501E-04 0.501E-04 -.225E-11
   -.374E+02 -.374E+02 0.108E-07   0.386E+02 0.386E+02 -.209E-12   -.119E+01 -.119E+01 -.139E-15   -.501E-04 -.501E-04 0.227E-11
 -----------------------------------------------------------------------------------------------
   -.649E-12 0.108E-10 0.221E-11   -.711E-14 0.355E-13 -.172E-14   -.222E-15 0.222E-15 0.000E+00   0.816E-13 0.105E-12 0.231E-13
 
 
 POSITION                                       TOTAL-FORCE (eV/Angst)
 -----------------------------------------------------------------------------------
      2.26112      2.26112      1.57314        -0.000000      0.000000      0.000000
      0.00000      0.00000      0.00000        -0.000000      0.000000      0.000000
      3.65465      0.86758      1.57314        -0.070494      0.070494     -0.000000
      0.86758      3.65465      1.57314         0.070494     -0.070494      0.000000
      1.39353      1.39353      0.00000        -0.070494     -0.070494     -0.000000
      3.12870      3.12870      0.00000         0.070494      0.070494      0.000000
 -----------------------------------------------------------------------------------
    total drift:                               -0.000000      0.000000      0.000000


--------------------------------------------------------------------------------------------------------



  FREE ENERGIE OF THE ION-ELECTRON SYSTEM (eV)
  ---------------------------------------------------
  free  energy   TOTEN  =       -33.52518990 eV

  energy  without entropy=      -33.52016514  energy(sigma->0) =      -33.52267752
 


--------------------------------------------------------------------------------------------------------


    POTLOK:  cpu time      0.6291: real time      0.6293


--------------------------------------------------------------------------------------------------------


     LOOP+:  cpu time     71.0138: real time     73.5006
    4ORBIT:  cpu time      0.0000: real time      0.0000



 total charge

# of ion       s       p       d       tot
------------------------------------------
    1        0.334   6.323   7.657  14.314
    2        0.334   6.323   7.657  14.314
    3        1.575   3.374   0.000   4.949
    4        1.575   3.374   0.000   4.949
    5        1.575   3.374   0.000   4.949
    6        1.575   3.374   0.000   4.949
--------------------------------------------------
tot          6.967  26.142  15.314  48.423



 magnetization (x)

# of ion       s       p       d       tot
------------------------------------------
    1        0.000   0.001  -0.067  -0.066
    2        0.000   0.001  -0.067  -0.066
    3       -0.001  -0.041   0.000  -0.042
    4       -0.001  -0.041   0.000  -0.042
    5       -0.001  -0.041   0.000  -0.042
    6       -0.001  -0.041   0.000  -0.042
--------------------------------------------------
tot         -0.002  -0.163  -0.134  -0.299
 

 total amount of memory used by VASP MPI-rank0    98974. kBytes
=======================================================================

   base      :      30000. kBytes
   nonl-proj :      25454. kBytes
   fftplans  :       9397. kBytes
   grid      :       7672. kBytes
   one-center:        186. kBytes
   wavefun   :      26265. kBytes
 
  
  
 General timing and accounting informations for this job:
 ========================================================
  
                  Total CPU time used (sec):       72.955
                            User time (sec):       71.128
                          System time (sec):        1.827
                         Elapsed time (sec):       75.598
  
                   Maximum memory used (kb):      383944.
                   Average memory used (kb):          N/A
  
                          Minor page faults:       359572
                          Major page faults:            1
                 Voluntary context switches:          836
