Automatically generated mesh
     168
Reciprocal lattice
    0.00000000000000    0.00000000000000    0.00000000000000             1
    0.08333333333334    0.00000000000000    0.00000000000000             4
    0.16666666666667    0.00000000000000    0.00000000000000             4
    0.25000000000000    0.00000000000000    0.00000000000000             4
    0.33333333333334    0.00000000000000    0.00000000000000             4
    0.41666666666667    0.00000000000000    0.00000000000000             4
    0.50000000000000    0.00000000000000    0.00000000000000             2
    0.08333333333334    0.08333333333334    0.00000000000000             4
    0.16666666666667    0.08333333333334    0.00000000000000             8
    0.25000000000000    0.08333333333334    0.00000000000000             8
    0.33333333333334    0.08333333333334    0.00000000000000             8
    0.41666666666667    0.08333333333334    0.00000000000000             8
    0.50000000000000    0.08333333333334    0.00000000000000             4
    0.16666666666667    0.16666666666667    0.00000000000000             4
    0.25000000000000    0.16666666666667    0.00000000000000             8
    0.33333333333334    0.16666666666667    0.00000000000000             8
    0.41666666666667    0.16666666666667    0.00000000000000             8
    0.50000000000000    0.16666666666667    0.00000000000000             4
    0.25000000000000    0.25000000000000    0.00000000000000             4
    0.33333333333334    0.25000000000000    0.00000000000000             8
    0.41666666666667    0.25000000000000    0.00000000000000             8
    0.50000000000000    0.25000000000000    0.00000000000000             4
    0.33333333333334    0.33333333333334    0.00000000000000             4
    0.41666666666667    0.33333333333334    0.00000000000000             8
    0.50000000000000    0.33333333333334    0.00000000000000             4
    0.41666666666667    0.41666666666667    0.00000000000000             4
    0.50000000000000    0.41666666666667    0.00000000000000             4
    0.50000000000000    0.50000000000000    0.00000000000000             1
    0.00000000000000    0.00000000000000    0.10000000000000             2
    0.08333333333334    0.00000000000000    0.10000000000000             8
    0.16666666666667    0.00000000000000    0.10000000000000             8
    0.25000000000000    0.00000000000000    0.10000000000000             8
    0.33333333333334    0.00000000000000    0.10000000000000             8
    0.41666666666667    0.00000000000000    0.10000000000000             8
    0.50000000000000    0.00000000000000    0.10000000000000             4
    0.08333333333334    0.08333333333334    0.10000000000000             8
    0.16666666666667    0.08333333333334    0.10000000000000            16
    0.25000000000000    0.08333333333334    0.10000000000000            16
    0.33333333333334    0.08333333333334    0.10000000000000            16
    0.41666666666667    0.08333333333334    0.10000000000000            16
    0.50000000000000    0.08333333333334    0.10000000000000             8
    0.16666666666667    0.16666666666667    0.10000000000000             8
    0.25000000000000    0.16666666666667    0.10000000000000            16
    0.33333333333334    0.16666666666667    0.10000000000000            16
    0.41666666666667    0.16666666666667    0.10000000000000            16
    0.50000000000000    0.16666666666667    0.10000000000000             8
    0.25000000000000    0.25000000000000    0.10000000000000             8
    0.33333333333334    0.25000000000000    0.10000000000000            16
    0.41666666666667    0.25000000000000    0.10000000000000            16
    0.50000000000000    0.25000000000000    0.10000000000000             8
    0.33333333333334    0.33333333333334    0.10000000000000             8
    0.41666666666667    0.33333333333334    0.10000000000000            16
    0.50000000000000    0.33333333333334    0.10000000000000             8
    0.41666666666667    0.41666666666667    0.10000000000000             8
    0.50000000000000    0.41666666666667    0.10000000000000             8
    0.50000000000000    0.50000000000000    0.10000000000000             2
    0.00000000000000    0.00000000000000    0.20000000000000             2
    0.08333333333334    0.00000000000000    0.20000000000000             8
    0.16666666666667    0.00000000000000    0.20000000000000             8
    0.25000000000000    0.00000000000000    0.20000000000000             8
    0.33333333333334    0.00000000000000    0.20000000000000             8
    0.41666666666667    0.00000000000000    0.20000000000000             8
    0.50000000000000    0.00000000000000    0.20000000000000             4
    0.08333333333334    0.08333333333334    0.20000000000000             8
    0.16666666666667    0.08333333333334    0.20000000000000            16
    0.25000000000000    0.08333333333334    0.20000000000000            16
    0.33333333333334    0.08333333333334    0.20000000000000            16
    0.41666666666667    0.08333333333334    0.20000000000000            16
    0.50000000000000    0.08333333333334    0.20000000000000             8
    0.16666666666667    0.16666666666667    0.20000000000000             8
    0.25000000000000    0.16666666666667    0.20000000000000            16
    0.33333333333334    0.16666666666667    0.20000000000000            16
    0.41666666666667    0.16666666666667    0.20000000000000            16
    0.50000000000000    0.16666666666667    0.20000000000000             8
    0.25000000000000    0.25000000000000    0.20000000000000             8
    0.33333333333334    0.25000000000000    0.20000000000000            16
    0.41666666666667    0.25000000000000    0.20000000000000            16
    0.50000000000000    0.25000000000000    0.20000000000000             8
    0.33333333333334    0.33333333333334    0.20000000000000             8
    0.41666666666667    0.33333333333334    0.20000000000000            16
    0.50000000000000    0.33333333333334    0.20000000000000             8
    0.41666666666667    0.41666666666667    0.20000000000000             8
    0.50000000000000    0.41666666666667    0.20000000000000             8
    0.50000000000000    0.50000000000000    0.20000000000000             2
    0.00000000000000    0.00000000000000    0.30000000000000             2
    0.08333333333334    0.00000000000000    0.30000000000000             8
    0.16666666666667    0.00000000000000    0.30000000000000             8
    0.25000000000000    0.00000000000000    0.30000000000000             8
    0.33333333333334    0.00000000000000    0.30000000000000             8
    0.41666666666667    0.00000000000000    0.30000000000000             8
    0.50000000000000    0.00000000000000    0.30000000000000             4
    0.08333333333334    0.08333333333334    0.30000000000000             8
    0.16666666666667    0.08333333333334    0.30000000000000            16
    0.25000000000000    0.08333333333334    0.30000000000000            16
    0.33333333333334    0.08333333333334    0.30000000000000            16
    0.41666666666667    0.08333333333334    0.30000000000000            16
    0.50000000000000    0.08333333333334    0.30000000000000             8
    0.16666666666667    0.16666666666667    0.30000000000000             8
    0.25000000000000    0.16666666666667    0.30000000000000            16
    0.33333333333334    0.16666666666667    0.30000000000000            16
    0.41666666666667    0.16666666666667    0.30000000000000            16
    0.50000000000000    0.16666666666667    0.30000000000000             8
    0.25000000000000    0.25000000000000    0.30000000000000             8
    0.33333333333334    0.25000000000000    0.30000000000000            16
    0.41666666666667    0.25000000000000    0.30000000000000            16
    0.50000000000000    0.25000000000000    0.30000000000000             8
    0.33333333333334    0.33333333333334    0.30000000000000             8
    0.41666666666667    0.33333333333334    0.30000000000000            16
    0.50000000000000    0.33333333333334    0.30000000000000             8
    0.41666666666667    0.41666666666667    0.30000000000000             8
    0.50000000000000    0.41666666666667    0.30000000000000             8
    0.50000000000000    0.50000000000000    0.30000000000000             2
    0.00000000000000    0.00000000000000    0.40000000000000             2
    0.08333333333334    0.00000000000000    0.40000000000000             8
    0.16666666666667    0.00000000000000    0.40000000000000             8
    0.25000000000000    0.00000000000000    0.40000000000000             8
    0.33333333333334    0.00000000000000    0.40000000000000             8
    0.41666666666667    0.00000000000000    0.40000000000000             8
    0.50000000000000    0.00000000000000    0.40000000000000             4
    0.08333333333334    0.08333333333334    0.40000000000000             8
    0.16666666666667    0.08333333333334    0.40000000000000            16
    0.25000000000000    0.08333333333334    0.40000000000000            16
    0.33333333333334    0.08333333333334    0.40000000000000            16
    0.41666666666667    0.08333333333334    0.40000000000000            16
    0.50000000000000    0.08333333333334    0.40000000000000             8
    0.16666666666667    0.16666666666667    0.40000000000000             8
    0.25000000000000    0.16666666666667    0.40000000000000            16
    0.33333333333334    0.16666666666667    0.40000000000000            16
    0.41666666666667    0.16666666666667    0.40000000000000            16
    0.50000000000000    0.16666666666667    0.40000000000000             8
    0.25000000000000    0.25000000000000    0.40000000000000             8
    0.33333333333334    0.25000000000000    0.40000000000000            16
    0.41666666666667    0.25000000000000    0.40000000000000            16
    0.50000000000000    0.25000000000000    0.40000000000000             8
    0.33333333333334    0.33333333333334    0.40000000000000             8
    0.41666666666667    0.33333333333334    0.40000000000000            16
    0.50000000000000    0.33333333333334    0.40000000000000             8
    0.41666666666667    0.41666666666667    0.40000000000000             8
    0.50000000000000    0.41666666666667    0.40000000000000             8
    0.50000000000000    0.50000000000000    0.40000000000000             2
    0.00000000000000    0.00000000000000    0.50000000000000             1
    0.08333333333334    0.00000000000000    0.50000000000000             4
    0.16666666666667    0.00000000000000    0.50000000000000             4
    0.25000000000000    0.00000000000000    0.50000000000000             4
    0.33333333333334    0.00000000000000    0.50000000000000             4
    0.41666666666667    0.00000000000000    0.50000000000000             4
    0.50000000000000    0.00000000000000    0.50000000000000             2
    0.08333333333334    0.08333333333334    0.50000000000000             4
    0.16666666666667    0.08333333333334    0.50000000000000             8
    0.25000000000000    0.08333333333334    0.50000000000000             8
    0.33333333333334    0.08333333333334    0.50000000000000             8
    0.41666666666667    0.08333333333334    0.50000000000000             8
    0.50000000000000    0.08333333333334    0.50000000000000             4
    0.16666666666667    0.16666666666667    0.50000000000000             4
    0.25000000000000    0.16666666666667    0.50000000000000             8
    0.33333333333334    0.16666666666667    0.50000000000000             8
    0.41666666666667    0.16666666666667    0.50000000000000             8
    0.50000000000000    0.16666666666667    0.50000000000000             4
    0.25000000000000    0.25000000000000    0.50000000000000             4
    0.33333333333334    0.25000000000000    0.50000000000000             8
    0.41666666666667    0.25000000000000    0.50000000000000             8
    0.50000000000000    0.25000000000000    0.50000000000000             4
    0.33333333333334    0.33333333333334    0.50000000000000             4
    0.41666666666667    0.33333333333334    0.50000000000000             8
    0.50000000000000    0.33333333333334    0.50000000000000             4
    0.41666666666667    0.41666666666667    0.50000000000000             4
    0.50000000000000    0.41666666666667    0.50000000000000             4
    0.50000000000000    0.50000000000000    0.50000000000000             1
