       N       E                     dE             d eps       ncg     rms          rms(c)
DAV:   1     0.472176884113E+03    0.47218E+03   -0.27879E+04 18848   0.178E+03
DAV:   2    -0.631806149281E+00   -0.47281E+03   -0.45769E+03 20612   0.505E+02
DAV:   3    -0.240807444493E+02   -0.23449E+02   -0.23149E+02 20844   0.115E+02
DAV:   4    -0.243590297669E+02   -0.27829E+00   -0.27806E+00 20388   0.136E+01
DAV:   5    -0.243618963876E+02   -0.28666E-02   -0.28664E-02 20888   0.142E+00    0.176E+01
DAV:   6    -0.227366187656E+02    0.16253E+01   -0.15539E+01 19708   0.357E+01    0.714E+00
DAV:   7    -0.221821676766E+02    0.55445E+00   -0.25183E+00 19672   0.172E+01    0.369E+00
DAV:   8    -0.222017054053E+02   -0.19538E-01   -0.42616E-01 19828   0.416E+00    0.150E+00
DAV:   9    -0.221970057278E+02    0.46997E-02   -0.24622E-02 20536   0.141E+00    0.445E-01
DAV:  10    -0.221984567657E+02   -0.14510E-02   -0.26313E-03 20004   0.426E-01    0.178E-01
DAV:  11    -0.221986542941E+02   -0.19753E-03   -0.35346E-04 20656   0.127E-01    0.874E-02
DAV:  12    -0.221986651969E+02   -0.10903E-04   -0.56702E-05 20184   0.539E-02    0.214E-02
DAV:  13    -0.221986749446E+02   -0.97477E-05   -0.14169E-05 20028   0.268E-02    0.854E-03
DAV:  14    -0.221986764475E+02   -0.15029E-05   -0.17455E-06 14180   0.103E-02    0.324E-03
DAV:  15    -0.221986766843E+02   -0.23678E-06   -0.54130E-07 11944   0.574E-03
   1 F= -.23442400E+02 E0= -.23441765E+02  d E =-.127069E-02  mag=    -0.0000
