 vasp.6.4.3 19Mar24 (build Nov 27 2025 15:18:09) complex                         
 executed on              LinuxNV date 2026.06.04  16:42:42
 running    4 mpi-ranks, with    1 threads/rank, on    1 nodes
 distrk:  each k-point on    4 cores,    1 groups
 distr:  one band on NCORE=   1 cores,    4 groups
 OpenACC runtime initialized ...    0 GPUs detected


--------------------------------------------------------------------------------------------------------


 INCAR:
   SYSTEM = pddmc
   ENCUT = 520
   PREC = Accurate
   LASPH = .TRUE.
   ADDGRID = .TRUE.
   ISPIN = 2
   IVDW = 12
   EDIFF = 1e-06
   NELM = 200
   NELMIN = 5
   ALGO = Normal
   NCORE = 1
   LREAL = .FALSE.
   LWAVE = .FALSE.
   LCHARG = .FALSE.
   LORBIT = 11
   ISYM = 2
   IBRION = -1
   NSW = 0
   ISIF = 0
   ISMEAR = 0
   SIGMA = 0.05
   EDIFFG = -0.01

 POTCAR:    PAW_PBE Pd_pv 28Jan2005               
 POTCAR:    PAW_PBE O 08Apr2002                   
 -----------------------------------------------------------------------------
|                                                                             |
|           W    W    AA    RRRRR   N    N  II  N    N   GGGG   !!!           |
|           W    W   A  A   R    R  NN   N  II  NN   N  G    G  !!!           |
|           W    W  A    A  R    R  N N  N  II  N N  N  G       !!!           |
|           W WW W  AAAAAA  RRRRR   N  N N  II  N  N N  G  GGG   !            |
|           WW  WW  A    A  R   R   N   NN  II  N   NN  G    G                |
|           W    W  A    A  R    R  N    N  II  N    N   GGGG   !!!           |
|                                                                             |
|     You use a magnetic or noncollinear calculation, but did not specify     |
|     the initial magnetic moment with the MAGMOM tag. Note that a            |
|     default of 1 will be used for all atoms. This ferromagnetic setup       |
|     may break the symmetry of the crystal, in particular it may rule        |
|     out finding an antiferromagnetic solution. Thence, we recommend         |
|     setting the initial magnetic moment manually or verifying carefully     |
|     that this magnetic setup is desired.                                    |
|                                                                             |
 -----------------------------------------------------------------------------

 POTCAR:    PAW_PBE Pd_pv 28Jan2005               
   SHA256 =  3ce661545bbde58da9a95410dea32907db2844916708bcd35bbe03ee66324d7f Pd_pv/POTCAR          
   COPYR  = (c) Copyright 28Jan2005 Georg Kresse                                                    
   COPYR  = This file is part of the software VASP. Any use, copying, and all other rights are regul
   COPYR  = If you do not have a valid VASP license, you may not use, copy or distribute this file. 
   VRHFIN =Pd: 4p5s4d                                                                               
   LEXCH  = PE                                                                                      
   EATOM  =  2621.5550 eV,  192.6789 Ry                                                             
                                                                                                    
   TITEL  = PAW_PBE Pd_pv 28Jan2005                                                                 
   LULTRA =        F    use ultrasoft PP ?                                                          
   IUNSCR =        1    unscreen: 0-lin 1-nonlin 2-no                                               
   RPACOR =    2.250    partial core radius                                                         
   POMASS =  106.420; ZVAL   =   16.000    mass and valenz                                          
   RCORE  =    2.400    outmost cutoff radius                                                       
   RWIGS  =    2.300; RWIGS  =    1.217    wigner-seitz radius (au A)                               
   ENMAX  =  250.925; ENMIN  =  188.194 eV                                                          
   ICORE  =        3    local potential                                                             
   LCOR   =        T    correct aug charges                                                         
   LPAW   =        T    paw PP                                                                      
   EAUG   =  473.067                                                                                
   DEXC   =    0.000                                                                                
   RMAX   =    2.449    core radius for proj-oper                                                   
   RAUG   =    1.300    factor for augmentation sphere                                              
   RDEP   =    2.405    radius for radial grids                                                     
   RDEPT  =    1.966    core radius for aug-charge                                                  
                                                                                                    
   Atomic configuration                                                                             
   11 entries                                                                                       
     n  l   j            E        occ.                                                              
     1  0  0.50    -24164.6632   2.0000                                                             
     2  0  0.50     -3530.9218   2.0000                                                             
     2  1  1.50     -3165.6822   6.0000                                                             
     3  0  0.50      -639.4578   2.0000                                                             
     3  1  1.50      -519.4532   6.0000                                                             
     3  2  2.50      -328.9758  10.0000                                                             
     4  0  0.50       -88.7014   2.0000                                                             
     4  1  1.50       -54.4541   6.0000                                                             
     4  2  2.50        -6.6878   9.0000                                                             
     5  0  0.50        -4.3543   1.0000                                                             
     4  3  2.50        -1.3606   0.0000                                                             
   Description                                                                                      
     l       E           TYP  RCUT    TYP  RCUT                                                     
     1    -54.4540524     23  2.100                                                                 
     1      4.0817478     23  2.100                                                                 
     2     -6.6878326     23  2.400                                                                 
     2     -4.0817478     23  2.400                                                                 
     0     -4.3542962     23  2.400                                                                 
     0     13.6058260     23  2.400                                                                 
     3     -5.4423304     23  2.400                                                                 
  local pseudopotential read in
  partial core-charges read in
  partial kinetic energy density read in
  atomic valenz-charges read in
  non local Contribution for L=            1  read in
    real space projection operators read in
  non local Contribution for L=            1  read in
    real space projection operators read in
  non local Contribution for L=            2  read in
    real space projection operators read in
  non local Contribution for L=            2  read in
    real space projection operators read in
  non local Contribution for L=            0  read in
    real space projection operators read in
  non local Contribution for L=            0  read in
    real space projection operators read in
    PAW grid and wavefunctions read in
 
   number of l-projection  operators is LMAX  =            6
   number of lm-projection operators is LMMAX =           18
 
 POTCAR:    PAW_PBE O 08Apr2002                   
   SHA256 =  818f92134a0a090dccd8ba1447fa70422a3b330e708bb4f08108d8ae51209ddf O/POTCAR              
   COPYR  = (c) Copyright 08Apr2002 Georg Kresse                                                    
   COPYR  = This file is part of the software VASP. Any use, copying, and all other rights are regul
   COPYR  = If you do not have a valid VASP license, you may not use, copy or distribute this file. 
   VRHFIN =O: s2p4                                                                                  
   LEXCH  = PE                                                                                      
   EATOM  =   432.3788 eV,   31.7789 Ry                                                             
                                                                                                    
   TITEL  = PAW_PBE O 08Apr2002                                                                     
   LULTRA =        F    use ultrasoft PP ?                                                          
   IUNSCR =        1    unscreen: 0-lin 1-nonlin 2-no                                               
   RPACOR =    1.200    partial core radius                                                         
   POMASS =   16.000; ZVAL   =    6.000    mass and valenz                                          
   RCORE  =    1.520    outmost cutoff radius                                                       
   RWIGS  =    1.550; RWIGS  =    0.820    wigner-seitz radius (au A)                               
   ENMAX  =  400.000; ENMIN  =  300.000 eV                                                          
   ICORE  =        2    local potential                                                             
   LCOR   =        T    correct aug charges                                                         
   LPAW   =        T    paw PP                                                                      
   EAUG   =  605.392                                                                                
   DEXC   =    0.000                                                                                
   RMAX   =    1.553    core radius for proj-oper                                                   
   RAUG   =    1.300    factor for augmentation sphere                                              
   RDEP   =    1.550    radius for radial grids                                                     
   RDEPT  =    1.329    core radius for aug-charge                                                  
                                                                                                    
   Atomic configuration                                                                             
    4 entries                                                                                       
     n  l   j            E        occ.                                                              
     1  0  0.50      -514.6923   2.0000                                                             
     2  0  0.50       -23.9615   2.0000                                                             
     2  1  0.50        -9.0305   4.0000                                                             
     3  2  1.50        -9.5241   0.0000                                                             
   Description                                                                                      
     l       E           TYP  RCUT    TYP  RCUT                                                     
     0    -23.9615318     23  1.200                                                                 
     0     -9.5240782     23  1.200                                                                 
     1     -9.0304911     23  1.520                                                                 
     1      8.1634956     23  1.520                                                                 
     2     -9.5240782      7  1.500                                                                 
  local pseudopotential read in
  partial core-charges read in
  partial kinetic energy density read in
  kinetic energy density of atom read in
  atomic valenz-charges read in
  non local Contribution for L=            0  read in
    real space projection operators read in
  non local Contribution for L=            0  read in
    real space projection operators read in
  non local Contribution for L=            1  read in
    real space projection operators read in
  non local Contribution for L=            1  read in
    real space projection operators read in
    PAW grid and wavefunctions read in
 
   number of l-projection  operators is LMAX  =            4
   number of lm-projection operators is LMMAX =            8
 
  PAW_PBE Pd_pv 28Jan2005               :
 energy of atom  1       EATOM=-2621.5550
 kinetic energy error for atom=    0.0088 (will be added to EATOM!!)
  PAW_PBE O 08Apr2002                   :
 energy of atom  2       EATOM= -432.3788
 kinetic energy error for atom=    0.0208 (will be added to EATOM!!)
 
 
 POSCAR: Pd O
  positions in cartesian coordinates
  No initial velocities read in
 IVDW         = 12
 VDW_S6       =    1.0000
 VDW_S8       =    0.7875
 VDW_A1       =    0.4289
 VDW_A2       =    4.4407
 VDW_RADIUS   =   50.2022 A
 VDW_CNRADIUS =   21.1671 A


 exchange-correlation table for PE
   RHO(1)=    0.500       N(1)  =     2000
   RHO(2)=  100.500       N(2)  =     4000
 


--------------------------------------------------------------------------------------------------------


 ion  position               nearest neighbor table
   1  0.500  0.000  0.500-   3 2.03   4 2.03   3 2.03   4 2.03
   2  0.000  0.500  0.000-   3 2.03   4 2.03   3 2.03   4 2.03
   3  0.000  0.000  0.750-   1 2.03   2 2.03   2 2.03   1 2.03
   4  0.000  0.000  0.250-   1 2.03   2 2.03   2 2.03   1 2.03
 
  LATTYP: Found a simple tetragonal cell.
 ALAT       =     3.0536041100
 C/A-ratio  =     1.7589892457
  
  Lattice vectors:
  
 A1 = (   3.0536041100,   0.0000000000,   0.0000000000)
 A2 = (   0.0000000000,   3.0536041100,   0.0000000000)
 A3 = (   0.0000000000,   0.0000000000,   5.3712567900)


Analysis of symmetry for initial positions (statically):
=====================================================================
 Subroutine PRICEL returns:
 Original cell was already a primitive cell.
 

 Routine SETGRP: Setting up the symmetry group for a 
 simple tetragonal supercell.


 Subroutine GETGRP returns: Found 16 space group operations
 (whereof  8 operations were pure point group operations)
 out of a pool of 16 trial point group operations.


The static configuration has the point symmetry D_2h.
 The point group associated with its full space group is D_4h.


Analysis of symmetry for dynamics (positions and initial velocities):
=====================================================================
 Subroutine PRICEL returns:
 Original cell was already a primitive cell.
 

 Routine SETGRP: Setting up the symmetry group for a 
 simple tetragonal supercell.


 Subroutine GETGRP returns: Found 16 space group operations
 (whereof  8 operations were pure point group operations)
 out of a pool of 16 trial point group operations.


The dynamic configuration has the point symmetry D_2h.
 The point group associated with its full space group is D_4h.


Analysis of structural, dynamic, and magnetic symmetry:
=====================================================================
 Subroutine PRICEL returns:
 Original cell was already a primitive cell.
 

 Routine SETGRP: Setting up the symmetry group for a 
 simple tetragonal supercell.


 Subroutine GETGRP returns: Found 16 space group operations
 (whereof  8 operations were pure point group operations)
 out of a pool of 16 trial point group operations.


The overall configuration has the point symmetry D_2h.
 The point group associated with its full space group is D_4h.


 Subroutine INISYM returns: Found 16 space group operations
 (whereof  8 operations are pure point group operations),
 and found     1 'primitive' translations


----------------------------------------------------------------------------------------

                                     Primitive cell                                     

  volume of cell :      50.0843

  direct lattice vectors                    reciprocal lattice vectors
     3.053604110  0.000000000  0.000000000     0.327481875 -0.000000000  0.000000000
     0.000000000  3.053604110  0.000000000     0.000000000  0.327481875  0.000000000
     0.000000000  0.000000000  5.371256790    -0.000000000 -0.000000000  0.186176167

  length of vectors
     3.053604110  3.053604110  5.371256790     0.327481875  0.327481875  0.186176167

  position of ions in fractional coordinates (direct lattice)
     0.500000000  0.000000000  0.500000000
     0.000000000  0.500000000  0.000000000
     0.000000000  0.000000000  0.750000000
     0.000000000  0.000000000  0.250000000

  ion indices of the primitive-cell ions
   primitive index   ion index
                 1           1
                 2           2
                 3           3
                 4           4

----------------------------------------------------------------------------------------

 
 
 KPOINTS: Automatic mesh                          

Automatic generation of k-mesh.
 Grid dimensions read from file:
 generate k-points for:   12   12   10

 Generating k-lattice:

  Cartesian coordinates                     Fractional coordinates (reciprocal lattice)
     0.027290156 -0.000000000  0.000000000     0.083333333  0.000000000  0.000000000
     0.000000000  0.027290156  0.000000000     0.000000000  0.083333333  0.000000000
    -0.000000000 -0.000000000  0.018617617     0.000000000  0.000000000  0.100000000

  Length of vectors
     0.027290156  0.027290156  0.018617617

  Shift w.r.t. Gamma in fractional coordinates (k-lattice)
     0.000000000  0.000000000  0.000000000

 
 Subroutine IBZKPT returns following result:
 ===========================================
 
 Found    168 irreducible k-points:
 
 Following reciprocal coordinates:
            Coordinates               Weight
  0.000000  0.000000  0.000000      1.000000
  0.083333  0.000000  0.000000      4.000000
  0.166667  0.000000  0.000000      4.000000
  0.250000  0.000000  0.000000      4.000000
  0.333333  0.000000  0.000000      4.000000
  0.416667  0.000000  0.000000      4.000000
  0.500000  0.000000  0.000000      2.000000
  0.083333  0.083333  0.000000      4.000000
  0.166667  0.083333  0.000000      8.000000
  0.250000  0.083333  0.000000      8.000000
  0.333333  0.083333  0.000000      8.000000
  0.416667  0.083333  0.000000      8.000000
  0.500000  0.083333  0.000000      4.000000
  0.166667  0.166667  0.000000      4.000000
  0.250000  0.166667  0.000000      8.000000
  0.333333  0.166667  0.000000      8.000000
  0.416667  0.166667  0.000000      8.000000
  0.500000  0.166667  0.000000      4.000000
  0.250000  0.250000  0.000000      4.000000
  0.333333  0.250000  0.000000      8.000000
  0.416667  0.250000  0.000000      8.000000
  0.500000  0.250000  0.000000      4.000000
  0.333333  0.333333  0.000000      4.000000
  0.416667  0.333333  0.000000      8.000000
  0.500000  0.333333  0.000000      4.000000
  0.416667  0.416667  0.000000      4.000000
  0.500000  0.416667  0.000000      4.000000
  0.500000  0.500000  0.000000      1.000000
  0.000000  0.000000  0.100000      2.000000
  0.083333  0.000000  0.100000      8.000000
  0.166667  0.000000  0.100000      8.000000
  0.250000  0.000000  0.100000      8.000000
  0.333333  0.000000  0.100000      8.000000
  0.416667  0.000000  0.100000      8.000000
  0.500000  0.000000  0.100000      4.000000
  0.083333  0.083333  0.100000      8.000000
  0.166667  0.083333  0.100000     16.000000
  0.250000  0.083333  0.100000     16.000000
  0.333333  0.083333  0.100000     16.000000
  0.416667  0.083333  0.100000     16.000000
  0.500000  0.083333  0.100000      8.000000
  0.166667  0.166667  0.100000      8.000000
  0.250000  0.166667  0.100000     16.000000
  0.333333  0.166667  0.100000     16.000000
  0.416667  0.166667  0.100000     16.000000
  0.500000  0.166667  0.100000      8.000000
  0.250000  0.250000  0.100000      8.000000
  0.333333  0.250000  0.100000     16.000000
  0.416667  0.250000  0.100000     16.000000
  0.500000  0.250000  0.100000      8.000000
  0.333333  0.333333  0.100000      8.000000
  0.416667  0.333333  0.100000     16.000000
  0.500000  0.333333  0.100000      8.000000
  0.416667  0.416667  0.100000      8.000000
  0.500000  0.416667  0.100000      8.000000
  0.500000  0.500000  0.100000      2.000000
  0.000000  0.000000  0.200000      2.000000
  0.083333  0.000000  0.200000      8.000000
  0.166667  0.000000  0.200000      8.000000
  0.250000  0.000000  0.200000      8.000000
  0.333333  0.000000  0.200000      8.000000
  0.416667  0.000000  0.200000      8.000000
  0.500000  0.000000  0.200000      4.000000
  0.083333  0.083333  0.200000      8.000000
  0.166667  0.083333  0.200000     16.000000
  0.250000  0.083333  0.200000     16.000000
  0.333333  0.083333  0.200000     16.000000
  0.416667  0.083333  0.200000     16.000000
  0.500000  0.083333  0.200000      8.000000
  0.166667  0.166667  0.200000      8.000000
  0.250000  0.166667  0.200000     16.000000
  0.333333  0.166667  0.200000     16.000000
  0.416667  0.166667  0.200000     16.000000
  0.500000  0.166667  0.200000      8.000000
  0.250000  0.250000  0.200000      8.000000
  0.333333  0.250000  0.200000     16.000000
  0.416667  0.250000  0.200000     16.000000
  0.500000  0.250000  0.200000      8.000000
  0.333333  0.333333  0.200000      8.000000
  0.416667  0.333333  0.200000     16.000000
  0.500000  0.333333  0.200000      8.000000
  0.416667  0.416667  0.200000      8.000000
  0.500000  0.416667  0.200000      8.000000
  0.500000  0.500000  0.200000      2.000000
  0.000000  0.000000  0.300000      2.000000
  0.083333  0.000000  0.300000      8.000000
  0.166667  0.000000  0.300000      8.000000
  0.250000  0.000000  0.300000      8.000000
  0.333333  0.000000  0.300000      8.000000
  0.416667  0.000000  0.300000      8.000000
  0.500000  0.000000  0.300000      4.000000
  0.083333  0.083333  0.300000      8.000000
  0.166667  0.083333  0.300000     16.000000
  0.250000  0.083333  0.300000     16.000000
  0.333333  0.083333  0.300000     16.000000
  0.416667  0.083333  0.300000     16.000000
  0.500000  0.083333  0.300000      8.000000
  0.166667  0.166667  0.300000      8.000000
  0.250000  0.166667  0.300000     16.000000
  0.333333  0.166667  0.300000     16.000000
  0.416667  0.166667  0.300000     16.000000
  0.500000  0.166667  0.300000      8.000000
  0.250000  0.250000  0.300000      8.000000
  0.333333  0.250000  0.300000     16.000000
  0.416667  0.250000  0.300000     16.000000
  0.500000  0.250000  0.300000      8.000000
  0.333333  0.333333  0.300000      8.000000
  0.416667  0.333333  0.300000     16.000000
  0.500000  0.333333  0.300000      8.000000
  0.416667  0.416667  0.300000      8.000000
  0.500000  0.416667  0.300000      8.000000
  0.500000  0.500000  0.300000      2.000000
  0.000000  0.000000  0.400000      2.000000
  0.083333  0.000000  0.400000      8.000000
  0.166667  0.000000  0.400000      8.000000
  0.250000  0.000000  0.400000      8.000000
  0.333333  0.000000  0.400000      8.000000
  0.416667  0.000000  0.400000      8.000000
  0.500000  0.000000  0.400000      4.000000
  0.083333  0.083333  0.400000      8.000000
  0.166667  0.083333  0.400000     16.000000
  0.250000  0.083333  0.400000     16.000000
  0.333333  0.083333  0.400000     16.000000
  0.416667  0.083333  0.400000     16.000000
  0.500000  0.083333  0.400000      8.000000
  0.166667  0.166667  0.400000      8.000000
  0.250000  0.166667  0.400000     16.000000
  0.333333  0.166667  0.400000     16.000000
  0.416667  0.166667  0.400000     16.000000
  0.500000  0.166667  0.400000      8.000000
  0.250000  0.250000  0.400000      8.000000
  0.333333  0.250000  0.400000     16.000000
  0.416667  0.250000  0.400000     16.000000
  0.500000  0.250000  0.400000      8.000000
  0.333333  0.333333  0.400000      8.000000
  0.416667  0.333333  0.400000     16.000000
  0.500000  0.333333  0.400000      8.000000
  0.416667  0.416667  0.400000      8.000000
  0.500000  0.416667  0.400000      8.000000
  0.500000  0.500000  0.400000      2.000000
  0.000000  0.000000  0.500000      1.000000
  0.083333  0.000000  0.500000      4.000000
  0.166667  0.000000  0.500000      4.000000
  0.250000  0.000000  0.500000      4.000000
  0.333333  0.000000  0.500000      4.000000
  0.416667  0.000000  0.500000      4.000000
  0.500000  0.000000  0.500000      2.000000
  0.083333  0.083333  0.500000      4.000000
  0.166667  0.083333  0.500000      8.000000
  0.250000  0.083333  0.500000      8.000000
  0.333333  0.083333  0.500000      8.000000
  0.416667  0.083333  0.500000      8.000000
  0.500000  0.083333  0.500000      4.000000
  0.166667  0.166667  0.500000      4.000000
  0.250000  0.166667  0.500000      8.000000
  0.333333  0.166667  0.500000      8.000000
  0.416667  0.166667  0.500000      8.000000
  0.500000  0.166667  0.500000      4.000000
  0.250000  0.250000  0.500000      4.000000
  0.333333  0.250000  0.500000      8.000000
  0.416667  0.250000  0.500000      8.000000
  0.500000  0.250000  0.500000      4.000000
  0.333333  0.333333  0.500000      4.000000
  0.416667  0.333333  0.500000      8.000000
  0.500000  0.333333  0.500000      4.000000
  0.416667  0.416667  0.500000      4.000000
  0.500000  0.416667  0.500000      4.000000
  0.500000  0.500000  0.500000      1.000000
 
 Following cartesian coordinates:
            Coordinates               Weight
  0.000000  0.000000  0.000000      1.000000
  0.027290  0.000000  0.000000      4.000000
  0.054580  0.000000  0.000000      4.000000
  0.081870  0.000000  0.000000      4.000000
  0.109161  0.000000  0.000000      4.000000
  0.136451  0.000000  0.000000      4.000000
  0.163741  0.000000  0.000000      2.000000
  0.027290  0.027290  0.000000      4.000000
  0.054580  0.027290  0.000000      8.000000
  0.081870  0.027290  0.000000      8.000000
  0.109161  0.027290  0.000000      8.000000
  0.136451  0.027290  0.000000      8.000000
  0.163741  0.027290  0.000000      4.000000
  0.054580  0.054580  0.000000      4.000000
  0.081870  0.054580  0.000000      8.000000
  0.109161  0.054580  0.000000      8.000000
  0.136451  0.054580  0.000000      8.000000
  0.163741  0.054580  0.000000      4.000000
  0.081870  0.081870  0.000000      4.000000
  0.109161  0.081870  0.000000      8.000000
  0.136451  0.081870  0.000000      8.000000
  0.163741  0.081870  0.000000      4.000000
  0.109161  0.109161  0.000000      4.000000
  0.136451  0.109161  0.000000      8.000000
  0.163741  0.109161  0.000000      4.000000
  0.136451  0.136451  0.000000      4.000000
  0.163741  0.136451  0.000000      4.000000
  0.163741  0.163741  0.000000      1.000000
  0.000000  0.000000  0.018618      2.000000
  0.027290  0.000000  0.018618      8.000000
  0.054580  0.000000  0.018618      8.000000
  0.081870  0.000000  0.018618      8.000000
  0.109161  0.000000  0.018618      8.000000
  0.136451  0.000000  0.018618      8.000000
  0.163741  0.000000  0.018618      4.000000
  0.027290  0.027290  0.018618      8.000000
  0.054580  0.027290  0.018618     16.000000
  0.081870  0.027290  0.018618     16.000000
  0.109161  0.027290  0.018618     16.000000
  0.136451  0.027290  0.018618     16.000000
  0.163741  0.027290  0.018618      8.000000
  0.054580  0.054580  0.018618      8.000000
  0.081870  0.054580  0.018618     16.000000
  0.109161  0.054580  0.018618     16.000000
  0.136451  0.054580  0.018618     16.000000
  0.163741  0.054580  0.018618      8.000000
  0.081870  0.081870  0.018618      8.000000
  0.109161  0.081870  0.018618     16.000000
  0.136451  0.081870  0.018618     16.000000
  0.163741  0.081870  0.018618      8.000000
  0.109161  0.109161  0.018618      8.000000
  0.136451  0.109161  0.018618     16.000000
  0.163741  0.109161  0.018618      8.000000
  0.136451  0.136451  0.018618      8.000000
  0.163741  0.136451  0.018618      8.000000
  0.163741  0.163741  0.018618      2.000000
  0.000000  0.000000  0.037235      2.000000
  0.027290  0.000000  0.037235      8.000000
  0.054580  0.000000  0.037235      8.000000
  0.081870  0.000000  0.037235      8.000000
  0.109161  0.000000  0.037235      8.000000
  0.136451  0.000000  0.037235      8.000000
  0.163741  0.000000  0.037235      4.000000
  0.027290  0.027290  0.037235      8.000000
  0.054580  0.027290  0.037235     16.000000
  0.081870  0.027290  0.037235     16.000000
  0.109161  0.027290  0.037235     16.000000
  0.136451  0.027290  0.037235     16.000000
  0.163741  0.027290  0.037235      8.000000
  0.054580  0.054580  0.037235      8.000000
  0.081870  0.054580  0.037235     16.000000
  0.109161  0.054580  0.037235     16.000000
  0.136451  0.054580  0.037235     16.000000
  0.163741  0.054580  0.037235      8.000000
  0.081870  0.081870  0.037235      8.000000
  0.109161  0.081870  0.037235     16.000000
  0.136451  0.081870  0.037235     16.000000
  0.163741  0.081870  0.037235      8.000000
  0.109161  0.109161  0.037235      8.000000
  0.136451  0.109161  0.037235     16.000000
  0.163741  0.109161  0.037235      8.000000
  0.136451  0.136451  0.037235      8.000000
  0.163741  0.136451  0.037235      8.000000
  0.163741  0.163741  0.037235      2.000000
  0.000000  0.000000  0.055853      2.000000
  0.027290  0.000000  0.055853      8.000000
  0.054580  0.000000  0.055853      8.000000
  0.081870  0.000000  0.055853      8.000000
  0.109161  0.000000  0.055853      8.000000
  0.136451  0.000000  0.055853      8.000000
  0.163741  0.000000  0.055853      4.000000
  0.027290  0.027290  0.055853      8.000000
  0.054580  0.027290  0.055853     16.000000
  0.081870  0.027290  0.055853     16.000000
  0.109161  0.027290  0.055853     16.000000
  0.136451  0.027290  0.055853     16.000000
  0.163741  0.027290  0.055853      8.000000
  0.054580  0.054580  0.055853      8.000000
  0.081870  0.054580  0.055853     16.000000
  0.109161  0.054580  0.055853     16.000000
  0.136451  0.054580  0.055853     16.000000
  0.163741  0.054580  0.055853      8.000000
  0.081870  0.081870  0.055853      8.000000
  0.109161  0.081870  0.055853     16.000000
  0.136451  0.081870  0.055853     16.000000
  0.163741  0.081870  0.055853      8.000000
  0.109161  0.109161  0.055853      8.000000
  0.136451  0.109161  0.055853     16.000000
  0.163741  0.109161  0.055853      8.000000
  0.136451  0.136451  0.055853      8.000000
  0.163741  0.136451  0.055853      8.000000
  0.163741  0.163741  0.055853      2.000000
  0.000000  0.000000  0.074470      2.000000
  0.027290  0.000000  0.074470      8.000000
  0.054580  0.000000  0.074470      8.000000
  0.081870  0.000000  0.074470      8.000000
  0.109161  0.000000  0.074470      8.000000
  0.136451  0.000000  0.074470      8.000000
  0.163741  0.000000  0.074470      4.000000
  0.027290  0.027290  0.074470      8.000000
  0.054580  0.027290  0.074470     16.000000
  0.081870  0.027290  0.074470     16.000000
  0.109161  0.027290  0.074470     16.000000
  0.136451  0.027290  0.074470     16.000000
  0.163741  0.027290  0.074470      8.000000
  0.054580  0.054580  0.074470      8.000000
  0.081870  0.054580  0.074470     16.000000
  0.109161  0.054580  0.074470     16.000000
  0.136451  0.054580  0.074470     16.000000
  0.163741  0.054580  0.074470      8.000000
  0.081870  0.081870  0.074470      8.000000
  0.109161  0.081870  0.074470     16.000000
  0.136451  0.081870  0.074470     16.000000
  0.163741  0.081870  0.074470      8.000000
  0.109161  0.109161  0.074470      8.000000
  0.136451  0.109161  0.074470     16.000000
  0.163741  0.109161  0.074470      8.000000
  0.136451  0.136451  0.074470      8.000000
  0.163741  0.136451  0.074470      8.000000
  0.163741  0.163741  0.074470      2.000000
  0.000000  0.000000  0.093088      1.000000
  0.027290  0.000000  0.093088      4.000000
  0.054580  0.000000  0.093088      4.000000
  0.081870  0.000000  0.093088      4.000000
  0.109161  0.000000  0.093088      4.000000
  0.136451  0.000000  0.093088      4.000000
  0.163741  0.000000  0.093088      2.000000
  0.027290  0.027290  0.093088      4.000000
  0.054580  0.027290  0.093088      8.000000
  0.081870  0.027290  0.093088      8.000000
  0.109161  0.027290  0.093088      8.000000
  0.136451  0.027290  0.093088      8.000000
  0.163741  0.027290  0.093088      4.000000
  0.054580  0.054580  0.093088      4.000000
  0.081870  0.054580  0.093088      8.000000
  0.109161  0.054580  0.093088      8.000000
  0.136451  0.054580  0.093088      8.000000
  0.163741  0.054580  0.093088      4.000000
  0.081870  0.081870  0.093088      4.000000
  0.109161  0.081870  0.093088      8.000000
  0.136451  0.081870  0.093088      8.000000
  0.163741  0.081870  0.093088      4.000000
  0.109161  0.109161  0.093088      4.000000
  0.136451  0.109161  0.093088      8.000000
  0.163741  0.109161  0.093088      4.000000
  0.136451  0.136451  0.093088      4.000000
  0.163741  0.136451  0.093088      4.000000
  0.163741  0.163741  0.093088      1.000000
 


--------------------------------------------------------------------------------------------------------




 Dimension of arrays:
   k-points           NKPTS =    168   k-points in BZ     NKDIM =    168   number of bands    NBANDS=     28
   number of dos      NEDOS =    301   number of ions     NIONS =      4
   non local maximal  LDIM  =      6   non local SUM 2l+1 LMDIM =     18
   total plane-waves  NPLWV =  23040
   max r-space proj   IRMAX =      1   max aug-charges    IRDMAX= 147517
   dimension x,y,z NGX =    24 NGY =   24 NGZ =   40
   dimension x,y,z NGXF=    48 NGYF=   48 NGZF=   80
   support grid    NGXF=    96 NGYF=   96 NGZF=  160
   ions per type =               2   2
   NGX,Y,Z   is equivalent  to a cutoff of  13.07, 13.07, 12.38 a.u.
   NGXF,Y,Z  is equivalent  to a cutoff of  26.13, 26.13, 24.76 a.u.

 SYSTEM =  pddmc                                   
 POSCAR =  Pd O                                    

 Startparameter for this run:
   NWRITE =      2    write-flag & timer
   PREC   = accura    normal or accurate (medium, high low for compatibility)
   ISTART =      0    job   : 0-new  1-cont  2-samecut
   ICHARG =      2    charge: 1-file 2-atom 10-const
   ISPIN  =      2    spin polarized calculation?
   LNONCOLLINEAR =      F non collinear calculations
   LSORBIT =      F    spin-orbit coupling
   INIWAV =      1    electr: 0-lowe 1-rand  2-diag
   LASPH  =      T    aspherical Exc in radial PAW
 Electronic Relaxation 1
   ENCUT  =  520.0 eV  38.22 Ry    6.18 a.u.   5.68  5.68  9.99*2*pi/ulx,y,z
   ENINI  =  520.0     initial cutoff
   ENAUG  =  605.4 eV  augmentation charge cutoff
   NELM   =    200;   NELMIN=  5; NELMDL= -5     # of ELM steps 
   EDIFF  = 0.1E-05   stopping-criterion for ELM
   LREAL  =      F    real-space projection
   NLSPLINE    = F    spline interpolate recip. space projectors
   LCOMPAT=      F    compatible to vasp.4.4
   GGA_COMPAT  = T    GGA compatible to vasp.4.4-vasp.4.6
   LMAXPAW     = -100 max onsite density
   LMAXMIX     =    2 max onsite mixed and CHGCAR
   VOSKOWN=      0    Vosko Wilk Nusair interpolation
   ROPT   =    0.00000   0.00000
 Ionic relaxation
   EDIFFG = -.1E-01   stopping-criterion for IOM
   NSW    =      0    number of steps for IOM
   NBLOCK =      1;   KBLOCK =      1    inner block; outer block 
   IBRION =     -1    ionic relax: 0-MD 1-quasi-New 2-CG
   NFREE  =      0    steps in history (QN), initial steepest desc. (CG)
   ISIF   =      0    stress and relaxation
   IWAVPR =     10    prediction:  0-non 1-charg 2-wave 3-comb
   ISYM   =      2    0-nonsym 1-usesym 2-fastsym
   LCORR  =      T    Harris-Foulkes like correction to forces

   POTIM  = 0.5000    time-step for ionic-motion
   TEIN   =    0.0    initial temperature
   TEBEG  =    0.0;   TEEND  =   0.0 temperature during run
   SMASS  =  -3.00    Nose mass-parameter (am)
   estimated Nose-frequenzy (Omega)   =  0.10E-29 period in steps = 0.13E+47 mass=  -0.213E-27a.u.
   SCALEE = 1.0000    scale energy and forces
   NPACO  =    256;   APACO  = 10.0  distance and # of slots for P.C.
   PSTRESS=    0.0 pullay stress

  Mass of Ions in am
   POMASS = 106.42 16.00
  Ionic Valenz
   ZVAL   =  16.00  6.00
  Atomic Wigner-Seitz radii
   RWIGS  =  -1.00 -1.00
  virtual crystal weights 
   VCA    =   1.00  1.00
   NELECT =      44.0000    total number of electrons
   NUPDOWN=      -1.0000    fix difference up-down

 DOS related values:
   EMIN   =  10.00;   EMAX   =-10.00  energy-range for DOS
   EFERMI =   0.00;   METHOD = LEGACY      
   ISMEAR =     0;   SIGMA  =   0.05  broadening in eV -4-tet -1-fermi 0-gaus

 Electronic relaxation 2 (details)
   IALGO  =     38    algorithm
   LDIAG  =      T    sub-space diagonalisation (order eigenvalues)
   LSUBROT=      F    optimize rotation matrix (better conditioning)
   TURBO    =      0    0=normal 1=particle mesh
   IRESTART =      0    0=no restart 2=restart with 2 vectors
   NREBOOT  =      0    no. of reboots
   NMIN     =      0    reboot dimension
   EREF     =   0.00    reference energy to select bands
   IMIX   =      4    mixing-type and parameters
     AMIX     =   0.40;   BMIX     =  1.00
     AMIX_MAG =   1.60;   BMIX_MAG =  1.00
     AMIN     =   0.10
     WC   =   100.;   INIMIX=   1;  MIXPRE=   1;  MAXMIX= -45

 Intra band minimization:
   WEIMIN = 0.0000     energy-eigenvalue tresh-hold
   EBREAK =  0.89E-08  absolut break condition
   DEPER  =   0.30     relativ break condition  

   TIME   =   0.40     timestep for ELM

  volume/ion in A,a.u.               =      12.52        84.50
  Fermi-wavevector in a.u.,A,eV,Ry     =   1.567925  2.962948 33.448407  2.458389
  Thomas-Fermi vector in A             =   2.670032
 
 Write flags
   LWAVE        =      F    write WAVECAR
   LDOWNSAMPLE  =      F    k-point downsampling of WAVECAR
   LCHARG       =      F    write CHGCAR
   LVTOT        =      F    write LOCPOT, total local potential
   LVHAR        =      F    write LOCPOT, Hartree potential only
   WRT_POTENTIAL= false  ! write potential to hdf5 file
   LELF         =      F    write electronic localiz. function (ELF)
   LORBIT       =     11    0 simple, 1 ext, 2 COOP (PROOUT), +10 PAW based schemes


 Dipole corrections
   LMONO      =      F    monopole corrections only (constant potential shift)
   LDIPOL     =      F    correct potential (dipole corrections)
   IDIPOL     =      0    1-x, 2-y, 3-z, 4-all directions 
   EPSILON    =  1.0000000 bulk dielectric constant
   LVACPOTAV  =      F  vacuum potentials using an averaging scheme for the charge density
   VACPOTFLAT =  0.1000000 required flatness to determine vacuum potential
 Exchange correlation treatment:
   GGA     = PE    functional components
   XC_C    = 1    coefficients multiplying the functional components
   LIBXC   =     F    Libxc                    
   VOSKOWN =     0    Vosko Wilk Nusair interpolation
   LHFCALC =     F    Hartree Fock is set to
   LHFONE  =     F    Hartree Fock one center treatment
   AEXX    =    0.0000 exact exchange contribution

 Parameters of functionals:
   PE:
     No parameter
 
 Van der Waals corrections
   IVDW    =    12    specifies the selected vdW correction

 Linear response parameters
   LEPSILON=     F    determine dielectric tensor
   LRPA    =     F    only Hartree local field effects (RPA)
   LNABLA  =     F    use nabla operator in PAW spheres
   LVEL    =     F    velocity operator in full k-point grid
   CSHIFT  =0.1000    complex shift for real part using Kramers Kronig
   OMEGAMAX=  -1.0    maximum frequency
   DEG_THRESHOLD= 0.2000000E-02 threshold for treating states as degnerate
   RTIME   =   -0.100 relaxation time in fs
  (WPLASMAI=    0.000 imaginary part of plasma frequency in eV, 0.658/RTIME)
   DFIELD  = 0.0000000 0.0000000 0.0000000 field for delta impulse in time
 
  Optional k-point grid parameters
   LKPOINTS_OPT  =     F    use optional k-point grid
   KPOINTS_OPT_MODE=     1    mode for optional k-point grid
 
 Orbital magnetization related:
   ORBITALMAG=     F  switch on orbital magnetization
   LCHIMAG   =     F  perturbation theory with respect to B field
   DQ        =  0.001000  dq finite difference perturbation B field
   LLRAUG    =     F  two centre corrections for induced B field
   LBONE     =     F  B-component reconstruction in AE one-centre
   LVGVCALC  =     T  calculate vGv susceptibility
   LVGVAPPL  =     F  apply vGv susceptibility instead of pGv for G=0

 Random number generation:
   RANDOM_GENERATOR = DEFAULT
   PCG_SEED         = not used


--------------------------------------------------------------------------------------------------------


 Static calculation
 charge density and potential will be updated during run
 spin polarized calculation
 Variant of blocked Davidson
 Davidson routine will perform the subspace rotation
 perform sub-space diagonalisation
    after iterative eigenvector-optimisation
 modified Broyden-mixing scheme, WC =      100.0
 initial mixing is a Kerker type mixing with AMIX =  0.4000 and BMIX =      1.0000
 Hartree-type preconditioning will be used
 using additional bands             6
 reciprocal scheme for non local part
 use partial core corrections
 calculate Harris-corrections to forces 
   (improved forces if not selfconsistent)
 use gradient corrections 
 use of overlap-Matrix (Vanderbilt PP)
 Gauss-broadening in eV      SIGMA  =   0.05


--------------------------------------------------------------------------------------------------------


  energy-cutoff  :      520.00
  volume of cell :       50.08
      direct lattice vectors                 reciprocal lattice vectors
     3.053604110  0.000000000  0.000000000     0.327481875 -0.000000000  0.000000000
     0.000000000  3.053604110  0.000000000     0.000000000  0.327481875  0.000000000
     0.000000000  0.000000000  5.371256790    -0.000000000 -0.000000000  0.186176167

  length of vectors
     3.053604110  3.053604110  5.371256790     0.327481875  0.327481875  0.186176167


 
 k-points in units of 2pi/SCALE and weight: Automatic mesh                          
   0.00000000  0.00000000  0.00000000       0.001
   0.02729016  0.00000000  0.00000000       0.003
   0.05458031  0.00000000  0.00000000       0.003
   0.08187047  0.00000000  0.00000000       0.003
   0.10916063  0.00000000  0.00000000       0.003
   0.13645078  0.00000000  0.00000000       0.003
   0.16374094  0.00000000  0.00000000       0.001
   0.02729016  0.02729016  0.00000000       0.003
   0.05458031  0.02729016  0.00000000       0.006
   0.08187047  0.02729016  0.00000000       0.006
   0.10916063  0.02729016  0.00000000       0.006
   0.13645078  0.02729016  0.00000000       0.006
   0.16374094  0.02729016  0.00000000       0.003
   0.05458031  0.05458031  0.00000000       0.003
   0.08187047  0.05458031  0.00000000       0.006
   0.10916063  0.05458031  0.00000000       0.006
   0.13645078  0.05458031  0.00000000       0.006
   0.16374094  0.05458031  0.00000000       0.003
   0.08187047  0.08187047  0.00000000       0.003
   0.10916063  0.08187047  0.00000000       0.006
   0.13645078  0.08187047  0.00000000       0.006
   0.16374094  0.08187047  0.00000000       0.003
   0.10916063  0.10916063  0.00000000       0.003
   0.13645078  0.10916063  0.00000000       0.006
   0.16374094  0.10916063  0.00000000       0.003
   0.13645078  0.13645078  0.00000000       0.003
   0.16374094  0.13645078  0.00000000       0.003
   0.16374094  0.16374094  0.00000000       0.001
   0.00000000  0.00000000  0.01861762       0.001
   0.02729016  0.00000000  0.01861762       0.006
   0.05458031  0.00000000  0.01861762       0.006
   0.08187047  0.00000000  0.01861762       0.006
   0.10916063  0.00000000  0.01861762       0.006
   0.13645078  0.00000000  0.01861762       0.006
   0.16374094  0.00000000  0.01861762       0.003
   0.02729016  0.02729016  0.01861762       0.006
   0.05458031  0.02729016  0.01861762       0.011
   0.08187047  0.02729016  0.01861762       0.011
   0.10916063  0.02729016  0.01861762       0.011
   0.13645078  0.02729016  0.01861762       0.011
   0.16374094  0.02729016  0.01861762       0.006
   0.05458031  0.05458031  0.01861762       0.006
   0.08187047  0.05458031  0.01861762       0.011
   0.10916063  0.05458031  0.01861762       0.011
   0.13645078  0.05458031  0.01861762       0.011
   0.16374094  0.05458031  0.01861762       0.006
   0.08187047  0.08187047  0.01861762       0.006
   0.10916063  0.08187047  0.01861762       0.011
   0.13645078  0.08187047  0.01861762       0.011
   0.16374094  0.08187047  0.01861762       0.006
   0.10916063  0.10916063  0.01861762       0.006
   0.13645078  0.10916063  0.01861762       0.011
   0.16374094  0.10916063  0.01861762       0.006
   0.13645078  0.13645078  0.01861762       0.006
   0.16374094  0.13645078  0.01861762       0.006
   0.16374094  0.16374094  0.01861762       0.001
   0.00000000  0.00000000  0.03723523       0.001
   0.02729016  0.00000000  0.03723523       0.006
   0.05458031  0.00000000  0.03723523       0.006
   0.08187047  0.00000000  0.03723523       0.006
   0.10916063  0.00000000  0.03723523       0.006
   0.13645078  0.00000000  0.03723523       0.006
   0.16374094  0.00000000  0.03723523       0.003
   0.02729016  0.02729016  0.03723523       0.006
   0.05458031  0.02729016  0.03723523       0.011
   0.08187047  0.02729016  0.03723523       0.011
   0.10916063  0.02729016  0.03723523       0.011
   0.13645078  0.02729016  0.03723523       0.011
   0.16374094  0.02729016  0.03723523       0.006
   0.05458031  0.05458031  0.03723523       0.006
   0.08187047  0.05458031  0.03723523       0.011
   0.10916063  0.05458031  0.03723523       0.011
   0.13645078  0.05458031  0.03723523       0.011
   0.16374094  0.05458031  0.03723523       0.006
   0.08187047  0.08187047  0.03723523       0.006
   0.10916063  0.08187047  0.03723523       0.011
   0.13645078  0.08187047  0.03723523       0.011
   0.16374094  0.08187047  0.03723523       0.006
   0.10916063  0.10916063  0.03723523       0.006
   0.13645078  0.10916063  0.03723523       0.011
   0.16374094  0.10916063  0.03723523       0.006
   0.13645078  0.13645078  0.03723523       0.006
   0.16374094  0.13645078  0.03723523       0.006
   0.16374094  0.16374094  0.03723523       0.001
   0.00000000  0.00000000  0.05585285       0.001
   0.02729016  0.00000000  0.05585285       0.006
   0.05458031  0.00000000  0.05585285       0.006
   0.08187047  0.00000000  0.05585285       0.006
   0.10916063  0.00000000  0.05585285       0.006
   0.13645078  0.00000000  0.05585285       0.006
   0.16374094  0.00000000  0.05585285       0.003
   0.02729016  0.02729016  0.05585285       0.006
   0.05458031  0.02729016  0.05585285       0.011
   0.08187047  0.02729016  0.05585285       0.011
   0.10916063  0.02729016  0.05585285       0.011
   0.13645078  0.02729016  0.05585285       0.011
   0.16374094  0.02729016  0.05585285       0.006
   0.05458031  0.05458031  0.05585285       0.006
   0.08187047  0.05458031  0.05585285       0.011
   0.10916063  0.05458031  0.05585285       0.011
   0.13645078  0.05458031  0.05585285       0.011
   0.16374094  0.05458031  0.05585285       0.006
   0.08187047  0.08187047  0.05585285       0.006
   0.10916063  0.08187047  0.05585285       0.011
   0.13645078  0.08187047  0.05585285       0.011
   0.16374094  0.08187047  0.05585285       0.006
   0.10916063  0.10916063  0.05585285       0.006
   0.13645078  0.10916063  0.05585285       0.011
   0.16374094  0.10916063  0.05585285       0.006
   0.13645078  0.13645078  0.05585285       0.006
   0.16374094  0.13645078  0.05585285       0.006
   0.16374094  0.16374094  0.05585285       0.001
   0.00000000  0.00000000  0.07447047       0.001
   0.02729016  0.00000000  0.07447047       0.006
   0.05458031  0.00000000  0.07447047       0.006
   0.08187047  0.00000000  0.07447047       0.006
   0.10916063  0.00000000  0.07447047       0.006
   0.13645078  0.00000000  0.07447047       0.006
   0.16374094  0.00000000  0.07447047       0.003
   0.02729016  0.02729016  0.07447047       0.006
   0.05458031  0.02729016  0.07447047       0.011
   0.08187047  0.02729016  0.07447047       0.011
   0.10916063  0.02729016  0.07447047       0.011
   0.13645078  0.02729016  0.07447047       0.011
   0.16374094  0.02729016  0.07447047       0.006
   0.05458031  0.05458031  0.07447047       0.006
   0.08187047  0.05458031  0.07447047       0.011
   0.10916063  0.05458031  0.07447047       0.011
   0.13645078  0.05458031  0.07447047       0.011
   0.16374094  0.05458031  0.07447047       0.006
   0.08187047  0.08187047  0.07447047       0.006
   0.10916063  0.08187047  0.07447047       0.011
   0.13645078  0.08187047  0.07447047       0.011
   0.16374094  0.08187047  0.07447047       0.006
   0.10916063  0.10916063  0.07447047       0.006
   0.13645078  0.10916063  0.07447047       0.011
   0.16374094  0.10916063  0.07447047       0.006
   0.13645078  0.13645078  0.07447047       0.006
   0.16374094  0.13645078  0.07447047       0.006
   0.16374094  0.16374094  0.07447047       0.001
   0.00000000  0.00000000  0.09308808       0.001
   0.02729016  0.00000000  0.09308808       0.003
   0.05458031  0.00000000  0.09308808       0.003
   0.08187047  0.00000000  0.09308808       0.003
   0.10916063  0.00000000  0.09308808       0.003
   0.13645078  0.00000000  0.09308808       0.003
   0.16374094  0.00000000  0.09308808       0.001
   0.02729016  0.02729016  0.09308808       0.003
   0.05458031  0.02729016  0.09308808       0.006
   0.08187047  0.02729016  0.09308808       0.006
   0.10916063  0.02729016  0.09308808       0.006
   0.13645078  0.02729016  0.09308808       0.006
   0.16374094  0.02729016  0.09308808       0.003
   0.05458031  0.05458031  0.09308808       0.003
   0.08187047  0.05458031  0.09308808       0.006
   0.10916063  0.05458031  0.09308808       0.006
   0.13645078  0.05458031  0.09308808       0.006
   0.16374094  0.05458031  0.09308808       0.003
   0.08187047  0.08187047  0.09308808       0.003
   0.10916063  0.08187047  0.09308808       0.006
   0.13645078  0.08187047  0.09308808       0.006
   0.16374094  0.08187047  0.09308808       0.003
   0.10916063  0.10916063  0.09308808       0.003
   0.13645078  0.10916063  0.09308808       0.006
   0.16374094  0.10916063  0.09308808       0.003
   0.13645078  0.13645078  0.09308808       0.003
   0.16374094  0.13645078  0.09308808       0.003
   0.16374094  0.16374094  0.09308808       0.001
 
 k-points in reciprocal lattice and weights: Automatic mesh                          
   0.00000000  0.00000000  0.00000000       0.001
   0.08333333  0.00000000  0.00000000       0.003
   0.16666667  0.00000000  0.00000000       0.003
   0.25000000  0.00000000  0.00000000       0.003
   0.33333333  0.00000000  0.00000000       0.003
   0.41666667  0.00000000  0.00000000       0.003
   0.50000000  0.00000000  0.00000000       0.001
   0.08333333  0.08333333  0.00000000       0.003
   0.16666667  0.08333333  0.00000000       0.006
   0.25000000  0.08333333  0.00000000       0.006
   0.33333333  0.08333333  0.00000000       0.006
   0.41666667  0.08333333  0.00000000       0.006
   0.50000000  0.08333333  0.00000000       0.003
   0.16666667  0.16666667  0.00000000       0.003
   0.25000000  0.16666667  0.00000000       0.006
   0.33333333  0.16666667  0.00000000       0.006
   0.41666667  0.16666667  0.00000000       0.006
   0.50000000  0.16666667  0.00000000       0.003
   0.25000000  0.25000000  0.00000000       0.003
   0.33333333  0.25000000  0.00000000       0.006
   0.41666667  0.25000000  0.00000000       0.006
   0.50000000  0.25000000  0.00000000       0.003
   0.33333333  0.33333333  0.00000000       0.003
   0.41666667  0.33333333  0.00000000       0.006
   0.50000000  0.33333333  0.00000000       0.003
   0.41666667  0.41666667  0.00000000       0.003
   0.50000000  0.41666667  0.00000000       0.003
   0.50000000  0.50000000  0.00000000       0.001
   0.00000000  0.00000000  0.10000000       0.001
   0.08333333  0.00000000  0.10000000       0.006
   0.16666667  0.00000000  0.10000000       0.006
   0.25000000  0.00000000  0.10000000       0.006
   0.33333333  0.00000000  0.10000000       0.006
   0.41666667  0.00000000  0.10000000       0.006
   0.50000000  0.00000000  0.10000000       0.003
   0.08333333  0.08333333  0.10000000       0.006
   0.16666667  0.08333333  0.10000000       0.011
   0.25000000  0.08333333  0.10000000       0.011
   0.33333333  0.08333333  0.10000000       0.011
   0.41666667  0.08333333  0.10000000       0.011
   0.50000000  0.08333333  0.10000000       0.006
   0.16666667  0.16666667  0.10000000       0.006
   0.25000000  0.16666667  0.10000000       0.011
   0.33333333  0.16666667  0.10000000       0.011
   0.41666667  0.16666667  0.10000000       0.011
   0.50000000  0.16666667  0.10000000       0.006
   0.25000000  0.25000000  0.10000000       0.006
   0.33333333  0.25000000  0.10000000       0.011
   0.41666667  0.25000000  0.10000000       0.011
   0.50000000  0.25000000  0.10000000       0.006
   0.33333333  0.33333333  0.10000000       0.006
   0.41666667  0.33333333  0.10000000       0.011
   0.50000000  0.33333333  0.10000000       0.006
   0.41666667  0.41666667  0.10000000       0.006
   0.50000000  0.41666667  0.10000000       0.006
   0.50000000  0.50000000  0.10000000       0.001
   0.00000000  0.00000000  0.20000000       0.001
   0.08333333  0.00000000  0.20000000       0.006
   0.16666667  0.00000000  0.20000000       0.006
   0.25000000  0.00000000  0.20000000       0.006
   0.33333333  0.00000000  0.20000000       0.006
   0.41666667  0.00000000  0.20000000       0.006
   0.50000000  0.00000000  0.20000000       0.003
   0.08333333  0.08333333  0.20000000       0.006
   0.16666667  0.08333333  0.20000000       0.011
   0.25000000  0.08333333  0.20000000       0.011
   0.33333333  0.08333333  0.20000000       0.011
   0.41666667  0.08333333  0.20000000       0.011
   0.50000000  0.08333333  0.20000000       0.006
   0.16666667  0.16666667  0.20000000       0.006
   0.25000000  0.16666667  0.20000000       0.011
   0.33333333  0.16666667  0.20000000       0.011
   0.41666667  0.16666667  0.20000000       0.011
   0.50000000  0.16666667  0.20000000       0.006
   0.25000000  0.25000000  0.20000000       0.006
   0.33333333  0.25000000  0.20000000       0.011
   0.41666667  0.25000000  0.20000000       0.011
   0.50000000  0.25000000  0.20000000       0.006
   0.33333333  0.33333333  0.20000000       0.006
   0.41666667  0.33333333  0.20000000       0.011
   0.50000000  0.33333333  0.20000000       0.006
   0.41666667  0.41666667  0.20000000       0.006
   0.50000000  0.41666667  0.20000000       0.006
   0.50000000  0.50000000  0.20000000       0.001
   0.00000000  0.00000000  0.30000000       0.001
   0.08333333  0.00000000  0.30000000       0.006
   0.16666667  0.00000000  0.30000000       0.006
   0.25000000  0.00000000  0.30000000       0.006
   0.33333333  0.00000000  0.30000000       0.006
   0.41666667  0.00000000  0.30000000       0.006
   0.50000000  0.00000000  0.30000000       0.003
   0.08333333  0.08333333  0.30000000       0.006
   0.16666667  0.08333333  0.30000000       0.011
   0.25000000  0.08333333  0.30000000       0.011
   0.33333333  0.08333333  0.30000000       0.011
   0.41666667  0.08333333  0.30000000       0.011
   0.50000000  0.08333333  0.30000000       0.006
   0.16666667  0.16666667  0.30000000       0.006
   0.25000000  0.16666667  0.30000000       0.011
   0.33333333  0.16666667  0.30000000       0.011
   0.41666667  0.16666667  0.30000000       0.011
   0.50000000  0.16666667  0.30000000       0.006
   0.25000000  0.25000000  0.30000000       0.006
   0.33333333  0.25000000  0.30000000       0.011
   0.41666667  0.25000000  0.30000000       0.011
   0.50000000  0.25000000  0.30000000       0.006
   0.33333333  0.33333333  0.30000000       0.006
   0.41666667  0.33333333  0.30000000       0.011
   0.50000000  0.33333333  0.30000000       0.006
   0.41666667  0.41666667  0.30000000       0.006
   0.50000000  0.41666667  0.30000000       0.006
   0.50000000  0.50000000  0.30000000       0.001
   0.00000000  0.00000000  0.40000000       0.001
   0.08333333  0.00000000  0.40000000       0.006
   0.16666667  0.00000000  0.40000000       0.006
   0.25000000  0.00000000  0.40000000       0.006
   0.33333333  0.00000000  0.40000000       0.006
   0.41666667  0.00000000  0.40000000       0.006
   0.50000000  0.00000000  0.40000000       0.003
   0.08333333  0.08333333  0.40000000       0.006
   0.16666667  0.08333333  0.40000000       0.011
   0.25000000  0.08333333  0.40000000       0.011
   0.33333333  0.08333333  0.40000000       0.011
   0.41666667  0.08333333  0.40000000       0.011
   0.50000000  0.08333333  0.40000000       0.006
   0.16666667  0.16666667  0.40000000       0.006
   0.25000000  0.16666667  0.40000000       0.011
   0.33333333  0.16666667  0.40000000       0.011
   0.41666667  0.16666667  0.40000000       0.011
   0.50000000  0.16666667  0.40000000       0.006
   0.25000000  0.25000000  0.40000000       0.006
   0.33333333  0.25000000  0.40000000       0.011
   0.41666667  0.25000000  0.40000000       0.011
   0.50000000  0.25000000  0.40000000       0.006
   0.33333333  0.33333333  0.40000000       0.006
   0.41666667  0.33333333  0.40000000       0.011
   0.50000000  0.33333333  0.40000000       0.006
   0.41666667  0.41666667  0.40000000       0.006
   0.50000000  0.41666667  0.40000000       0.006
   0.50000000  0.50000000  0.40000000       0.001
   0.00000000  0.00000000  0.50000000       0.001
   0.08333333  0.00000000  0.50000000       0.003
   0.16666667  0.00000000  0.50000000       0.003
   0.25000000  0.00000000  0.50000000       0.003
   0.33333333  0.00000000  0.50000000       0.003
   0.41666667  0.00000000  0.50000000       0.003
   0.50000000  0.00000000  0.50000000       0.001
   0.08333333  0.08333333  0.50000000       0.003
   0.16666667  0.08333333  0.50000000       0.006
   0.25000000  0.08333333  0.50000000       0.006
   0.33333333  0.08333333  0.50000000       0.006
   0.41666667  0.08333333  0.50000000       0.006
   0.50000000  0.08333333  0.50000000       0.003
   0.16666667  0.16666667  0.50000000       0.003
   0.25000000  0.16666667  0.50000000       0.006
   0.33333333  0.16666667  0.50000000       0.006
   0.41666667  0.16666667  0.50000000       0.006
   0.50000000  0.16666667  0.50000000       0.003
   0.25000000  0.25000000  0.50000000       0.003
   0.33333333  0.25000000  0.50000000       0.006
   0.41666667  0.25000000  0.50000000       0.006
   0.50000000  0.25000000  0.50000000       0.003
   0.33333333  0.33333333  0.50000000       0.003
   0.41666667  0.33333333  0.50000000       0.006
   0.50000000  0.33333333  0.50000000       0.003
   0.41666667  0.41666667  0.50000000       0.003
   0.50000000  0.41666667  0.50000000       0.003
   0.50000000  0.50000000  0.50000000       0.001
 
 position of ions in fractional coordinates (direct lattice) 
   0.50000000  0.00000000  0.50000000
   0.00000000  0.50000000  0.00000000
   0.00000000  0.00000000  0.75000000
   0.00000000  0.00000000  0.25000000
 
 position of ions in cartesian coordinates  (Angst):
   1.52680206  0.00000000  2.68562840
   0.00000000  1.52680206  0.00000000
   0.00000000  0.00000000  4.02844259
   0.00000000  0.00000000  1.34281420
 


--------------------------------------------------------------------------------------------------------


 k-point     1 :   0.0000 0.0000 0.0000  plane waves:    1351
 k-point     2 :   0.0833 0.0000 0.0000  plane waves:    1343
 k-point     3 :   0.1667 0.0000 0.0000  plane waves:    1349
 k-point     4 :   0.2500 0.0000 0.0000  plane waves:    1349
 k-point     5 :   0.3333 0.0000 0.0000  plane waves:    1346
 k-point     6 :   0.4167 0.0000 0.0000  plane waves:    1358
 k-point     7 :   0.5000 0.0000 0.0000  plane waves:    1348
 k-point     8 :   0.0833 0.0833 0.0000  plane waves:    1346
 k-point     9 :   0.1667 0.0833 0.0000  plane waves:    1349
 k-point    10 :   0.2500 0.0833 0.0000  plane waves:    1354
 k-point    11 :   0.3333 0.0833 0.0000  plane waves:    1346
 k-point    12 :   0.4167 0.0833 0.0000  plane waves:    1346
 k-point    13 :   0.5000 0.0833 0.0000  plane waves:    1344
 k-point    14 :   0.1667 0.1667 0.0000  plane waves:    1354
 k-point    15 :   0.2500 0.1667 0.0000  plane waves:    1354
 k-point    16 :   0.3333 0.1667 0.0000  plane waves:    1348
 k-point    17 :   0.4167 0.1667 0.0000  plane waves:    1349
 k-point    18 :   0.5000 0.1667 0.0000  plane waves:    1350
 k-point    19 :   0.2500 0.2500 0.0000  plane waves:    1344
 k-point    20 :   0.3333 0.2500 0.0000  plane waves:    1340
 k-point    21 :   0.4167 0.2500 0.0000  plane waves:    1341
 k-point    22 :   0.5000 0.2500 0.0000  plane waves:    1350
 k-point    23 :   0.3333 0.3333 0.0000  plane waves:    1338
 k-point    24 :   0.4167 0.3333 0.0000  plane waves:    1336
 k-point    25 :   0.5000 0.3333 0.0000  plane waves:    1334
 k-point    26 :   0.4167 0.4167 0.0000  plane waves:    1324
 k-point    27 :   0.5000 0.4167 0.0000  plane waves:    1326
 k-point    28 :   0.5000 0.5000 0.0000  plane waves:    1320
 k-point    29 :   0.0000 0.0000 0.1000  plane waves:    1348
 k-point    30 :   0.0833 0.0000 0.1000  plane waves:    1346
 k-point    31 :   0.1667 0.0000 0.1000  plane waves:    1352
 k-point    32 :   0.2500 0.0000 0.1000  plane waves:    1356
 k-point    33 :   0.3333 0.0000 0.1000  plane waves:    1351
 k-point    34 :   0.4167 0.0000 0.1000  plane waves:    1353
 k-point    35 :   0.5000 0.0000 0.1000  plane waves:    1346
 k-point    36 :   0.0833 0.0833 0.1000  plane waves:    1345
 k-point    37 :   0.1667 0.0833 0.1000  plane waves:    1351
 k-point    38 :   0.2500 0.0833 0.1000  plane waves:    1354
 k-point    39 :   0.3333 0.0833 0.1000  plane waves:    1353
 k-point    40 :   0.4167 0.0833 0.1000  plane waves:    1350
 k-point    41 :   0.5000 0.0833 0.1000  plane waves:    1352
 k-point    42 :   0.1667 0.1667 0.1000  plane waves:    1347
 k-point    43 :   0.2500 0.1667 0.1000  plane waves:    1351
 k-point    44 :   0.3333 0.1667 0.1000  plane waves:    1356
 k-point    45 :   0.4167 0.1667 0.1000  plane waves:    1350
 k-point    46 :   0.5000 0.1667 0.1000  plane waves:    1348
 k-point    47 :   0.2500 0.2500 0.1000  plane waves:    1342
 k-point    48 :   0.3333 0.2500 0.1000  plane waves:    1338
 k-point    49 :   0.4167 0.2500 0.1000  plane waves:    1341
 k-point    50 :   0.5000 0.2500 0.1000  plane waves:    1346
 k-point    51 :   0.3333 0.3333 0.1000  plane waves:    1335
 k-point    52 :   0.4167 0.3333 0.1000  plane waves:    1336
 k-point    53 :   0.5000 0.3333 0.1000  plane waves:    1336
 k-point    54 :   0.4167 0.4167 0.1000  plane waves:    1330
 k-point    55 :   0.5000 0.4167 0.1000  plane waves:    1332
 k-point    56 :   0.5000 0.5000 0.1000  plane waves:    1324
 k-point    57 :   0.0000 0.0000 0.2000  plane waves:    1340
 k-point    58 :   0.0833 0.0000 0.2000  plane waves:    1350
 k-point    59 :   0.1667 0.0000 0.2000  plane waves:    1352
 k-point    60 :   0.2500 0.0000 0.2000  plane waves:    1350
 k-point    61 :   0.3333 0.0000 0.2000  plane waves:    1349
 k-point    62 :   0.4167 0.0000 0.2000  plane waves:    1352
 k-point    63 :   0.5000 0.0000 0.2000  plane waves:    1356
 k-point    64 :   0.0833 0.0833 0.2000  plane waves:    1349
 k-point    65 :   0.1667 0.0833 0.2000  plane waves:    1350
 k-point    66 :   0.2500 0.0833 0.2000  plane waves:    1354
 k-point    67 :   0.3333 0.0833 0.2000  plane waves:    1357
 k-point    68 :   0.4167 0.0833 0.2000  plane waves:    1359
 k-point    69 :   0.5000 0.0833 0.2000  plane waves:    1356
 k-point    70 :   0.1667 0.1667 0.2000  plane waves:    1349
 k-point    71 :   0.2500 0.1667 0.2000  plane waves:    1346
 k-point    72 :   0.3333 0.1667 0.2000  plane waves:    1352
 k-point    73 :   0.4167 0.1667 0.2000  plane waves:    1351
 k-point    74 :   0.5000 0.1667 0.2000  plane waves:    1352
 k-point    75 :   0.2500 0.2500 0.2000  plane waves:    1342
 k-point    76 :   0.3333 0.2500 0.2000  plane waves:    1341
 k-point    77 :   0.4167 0.2500 0.2000  plane waves:    1344
 k-point    78 :   0.5000 0.2500 0.2000  plane waves:    1342
 k-point    79 :   0.3333 0.3333 0.2000  plane waves:    1339
 k-point    80 :   0.4167 0.3333 0.2000  plane waves:    1341
 k-point    81 :   0.5000 0.3333 0.2000  plane waves:    1340
 k-point    82 :   0.4167 0.4167 0.2000  plane waves:    1342
 k-point    83 :   0.5000 0.4167 0.2000  plane waves:    1344
 k-point    84 :   0.5000 0.5000 0.2000  plane waves:    1340
 k-point    85 :   0.0000 0.0000 0.3000  plane waves:    1352
 k-point    86 :   0.0833 0.0000 0.3000  plane waves:    1352
 k-point    87 :   0.1667 0.0000 0.3000  plane waves:    1351
 k-point    88 :   0.2500 0.0000 0.3000  plane waves:    1352
 k-point    89 :   0.3333 0.0000 0.3000  plane waves:    1354
 k-point    90 :   0.4167 0.0000 0.3000  plane waves:    1358
 k-point    91 :   0.5000 0.0000 0.3000  plane waves:    1364
 k-point    92 :   0.0833 0.0833 0.3000  plane waves:    1347
 k-point    93 :   0.1667 0.0833 0.3000  plane waves:    1348
 k-point    94 :   0.2500 0.0833 0.3000  plane waves:    1353
 k-point    95 :   0.3333 0.0833 0.3000  plane waves:    1355
 k-point    96 :   0.4167 0.0833 0.3000  plane waves:    1355
 k-point    97 :   0.5000 0.0833 0.3000  plane waves:    1362
 k-point    98 :   0.1667 0.1667 0.3000  plane waves:    1348
 k-point    99 :   0.2500 0.1667 0.3000  plane waves:    1343
 k-point   100 :   0.3333 0.1667 0.3000  plane waves:    1347
 k-point   101 :   0.4167 0.1667 0.3000  plane waves:    1352
 k-point   102 :   0.5000 0.1667 0.3000  plane waves:    1358
 k-point   103 :   0.2500 0.2500 0.3000  plane waves:    1346
 k-point   104 :   0.3333 0.2500 0.3000  plane waves:    1343
 k-point   105 :   0.4167 0.2500 0.3000  plane waves:    1352
 k-point   106 :   0.5000 0.2500 0.3000  plane waves:    1348
 k-point   107 :   0.3333 0.3333 0.3000  plane waves:    1339
 k-point   108 :   0.4167 0.3333 0.3000  plane waves:    1344
 k-point   109 :   0.5000 0.3333 0.3000  plane waves:    1346
 k-point   110 :   0.4167 0.4167 0.3000  plane waves:    1341
 k-point   111 :   0.5000 0.4167 0.3000  plane waves:    1338
 k-point   112 :   0.5000 0.5000 0.3000  plane waves:    1328
 k-point   113 :   0.0000 0.0000 0.4000  plane waves:    1352
 k-point   114 :   0.0833 0.0000 0.4000  plane waves:    1351
 k-point   115 :   0.1667 0.0000 0.4000  plane waves:    1343
 k-point   116 :   0.2500 0.0000 0.4000  plane waves:    1341
 k-point   117 :   0.3333 0.0000 0.4000  plane waves:    1353
 k-point   118 :   0.4167 0.0000 0.4000  plane waves:    1363
 k-point   119 :   0.5000 0.0000 0.4000  plane waves:    1370
 k-point   120 :   0.0833 0.0833 0.4000  plane waves:    1351
 k-point   121 :   0.1667 0.0833 0.4000  plane waves:    1350
 k-point   122 :   0.2500 0.0833 0.4000  plane waves:    1346
 k-point   123 :   0.3333 0.0833 0.4000  plane waves:    1350
 k-point   124 :   0.4167 0.0833 0.4000  plane waves:    1351
 k-point   125 :   0.5000 0.0833 0.4000  plane waves:    1358
 k-point   126 :   0.1667 0.1667 0.4000  plane waves:    1362
 k-point   127 :   0.2500 0.1667 0.4000  plane waves:    1348
 k-point   128 :   0.3333 0.1667 0.4000  plane waves:    1347
 k-point   129 :   0.4167 0.1667 0.4000  plane waves:    1351
 k-point   130 :   0.5000 0.1667 0.4000  plane waves:    1356
 k-point   131 :   0.2500 0.2500 0.4000  plane waves:    1346
 k-point   132 :   0.3333 0.2500 0.4000  plane waves:    1353
 k-point   133 :   0.4167 0.2500 0.4000  plane waves:    1354
 k-point   134 :   0.5000 0.2500 0.4000  plane waves:    1354
 k-point   135 :   0.3333 0.3333 0.4000  plane waves:    1345
 k-point   136 :   0.4167 0.3333 0.4000  plane waves:    1345
 k-point   137 :   0.5000 0.3333 0.4000  plane waves:    1354
 k-point   138 :   0.4167 0.4167 0.4000  plane waves:    1351
 k-point   139 :   0.5000 0.4167 0.4000  plane waves:    1344
 k-point   140 :   0.5000 0.5000 0.4000  plane waves:    1320
 k-point   141 :   0.0000 0.0000 0.5000  plane waves:    1348
 k-point   142 :   0.0833 0.0000 0.5000  plane waves:    1356
 k-point   143 :   0.1667 0.0000 0.5000  plane waves:    1340
 k-point   144 :   0.2500 0.0000 0.5000  plane waves:    1342
 k-point   145 :   0.3333 0.0000 0.5000  plane waves:    1344
 k-point   146 :   0.4167 0.0000 0.5000  plane waves:    1358
 k-point   147 :   0.5000 0.0000 0.5000  plane waves:    1372
 k-point   148 :   0.0833 0.0833 0.5000  plane waves:    1354
 k-point   149 :   0.1667 0.0833 0.5000  plane waves:    1350
 k-point   150 :   0.2500 0.0833 0.5000  plane waves:    1344
 k-point   151 :   0.3333 0.0833 0.5000  plane waves:    1350
 k-point   152 :   0.4167 0.0833 0.5000  plane waves:    1354
 k-point   153 :   0.5000 0.0833 0.5000  plane waves:    1356
 k-point   154 :   0.1667 0.1667 0.5000  plane waves:    1362
 k-point   155 :   0.2500 0.1667 0.5000  plane waves:    1346
 k-point   156 :   0.3333 0.1667 0.5000  plane waves:    1344
 k-point   157 :   0.4167 0.1667 0.5000  plane waves:    1350
 k-point   158 :   0.5000 0.1667 0.5000  plane waves:    1352
 k-point   159 :   0.2500 0.2500 0.5000  plane waves:    1346
 k-point   160 :   0.3333 0.2500 0.5000  plane waves:    1350
 k-point   161 :   0.4167 0.2500 0.5000  plane waves:    1346
 k-point   162 :   0.5000 0.2500 0.5000  plane waves:    1352
 k-point   163 :   0.3333 0.3333 0.5000  plane waves:    1342
 k-point   164 :   0.4167 0.3333 0.5000  plane waves:    1352
 k-point   165 :   0.5000 0.3333 0.5000  plane waves:    1352
 k-point   166 :   0.4167 0.4167 0.5000  plane waves:    1356
 k-point   167 :   0.5000 0.4167 0.5000  plane waves:    1344
 k-point   168 :   0.5000 0.5000 0.5000  plane waves:    1328

 maximum and minimum number of plane-waves per node :      1372     1320

 maximum number of plane-waves:      1372
 maximum index in each direction: 
   IXMAX=    5   IYMAX=    5   IZMAX=    9
   IXMIN=   -6   IYMIN=   -6   IZMIN=  -10


 serial   3D FFT for wavefunctions
 parallel 3D FFT for charge:
    minimum data exchange during FFTs selected (reduces bandwidth)


 total amount of memory used by VASP MPI-rank0   162698. kBytes
=======================================================================

   base      :      30000. kBytes
   nonl-proj :      66470. kBytes
   fftplans  :       6896. kBytes
   grid      :       5621. kBytes
   one-center:        124. kBytes
   wavefun   :      53587. kBytes
 
     INWAV:  cpu time      0.0000: real time      0.0000
 Broyden mixing: mesh for mixing (old mesh)
   NGX = 11   NGY = 11   NGZ = 19
  (NGX  = 48   NGY  = 48   NGZ  = 80)
  gives a total of   2299 points

 initial charge density was supplied:
 charge density of overlapping atoms calculated
 number of electron      44.0000000 magnetization       4.0000000
 keeping initial charge density in first step


--------------------------------------------------------------------------------------------------------


 Maximum index for augmentation-charges         35753 (set IRDMAX)


--------------------------------------------------------------------------------------------------------


 First call to EWALD:  gamma=   0.481
 Maximum number of real-space cells 3x 3x 2
 Maximum number of reciprocal cells 2x 2x 4

    FEWALD:  cpu time      0.0004: real time      0.0004


--------------------------------------- Ionic step        1  -------------------------------------------




--------------------------------------- Iteration      1(   1)  ---------------------------------------


    POTLOK:  cpu time      0.0372: real time      0.0372
    SETDIJ:  cpu time      0.4006: real time      0.4007
     EDDAV:  cpu time      7.8051: real time      7.8202
       DOS:  cpu time      0.0015: real time      0.0015
    --------------------------------------------
      LOOP:  cpu time      8.2444: real time      8.2595

 eigenvalue-minimisations  : 18848
 total energy-change (2. order) : 0.4721769E+03  (-0.2787883E+04)
 number of electron      44.0000000 magnetization       4.0000000
 augmentation part       44.0000000 magnetization       4.0000000

 Free energy of the ion-electron system (eV)
  ---------------------------------------------------
  alpha Z        PSCENC =       264.60919239
  Ewald energy   TEWEN  =     -4637.17866551
  -Hartree energ DENC   =     -1556.19354633
  -exchange      EXHF   =         0.00000000
  -V(xc)+E(xc)   XCENC  =       221.00441200
  PAW double counting   =      5208.65407777    -5154.59282805
  entropy T*S    EENTRO =        -0.00126667
  eigenvalues    EBANDS =        18.06710481
  atomic energy  EATOM  =      6107.80840369
  Solvation  Ediel_sol  =         0.00000000
  ---------------------------------------------------
  free energy    TOTEN  =       472.17688411 eV

  energy without entropy =      472.17815078  energy(sigma->0) =      472.17751745


--------------------------------------------------------------------------------------------------------




--------------------------------------- Iteration      1(   2)  ---------------------------------------


     EDDAV:  cpu time      7.9322: real time      7.9343
       DOS:  cpu time      0.0013: real time      0.0013
    --------------------------------------------
      LOOP:  cpu time      7.9335: real time      7.9356

 eigenvalue-minimisations  : 20612
 total energy-change (2. order) :-0.4728087E+03  (-0.4576939E+03)
 number of electron      44.0000000 magnetization       4.0000000
 augmentation part       44.0000000 magnetization       4.0000000

 Free energy of the ion-electron system (eV)
  ---------------------------------------------------
  alpha Z        PSCENC =       264.60919239
  Ewald energy   TEWEN  =     -4637.17866551
  -Hartree energ DENC   =     -1556.19354633
  -exchange      EXHF   =         0.00000000
  -V(xc)+E(xc)   XCENC  =       221.00441200
  PAW double counting   =      5208.65407777    -5154.59282805
  entropy T*S    EENTRO =        -0.00206297
  eigenvalues    EBANDS =      -454.74078914
  atomic energy  EATOM  =      6107.80840369
  Solvation  Ediel_sol  =         0.00000000
  ---------------------------------------------------
  free energy    TOTEN  =        -0.63180615 eV

  energy without entropy =       -0.62974317  energy(sigma->0) =       -0.63077466


--------------------------------------------------------------------------------------------------------




--------------------------------------- Iteration      1(   3)  ---------------------------------------


     EDDAV:  cpu time      7.0798: real time      7.0819
       DOS:  cpu time      0.0013: real time      0.0013
    --------------------------------------------
      LOOP:  cpu time      7.0811: real time      7.0832

 eigenvalue-minimisations  : 20844
 total energy-change (2. order) :-0.2344894E+02  (-0.2314934E+02)
 number of electron      44.0000000 magnetization       4.0000000
 augmentation part       44.0000000 magnetization       4.0000000

 Free energy of the ion-electron system (eV)
  ---------------------------------------------------
  alpha Z        PSCENC =       264.60919239
  Ewald energy   TEWEN  =     -4637.17866551
  -Hartree energ DENC   =     -1556.19354633
  -exchange      EXHF   =         0.00000000
  -V(xc)+E(xc)   XCENC  =       221.00441200
  PAW double counting   =      5208.65407777    -5154.59282805
  entropy T*S    EENTRO =        -0.00280407
  eigenvalues    EBANDS =      -478.18898635
  atomic energy  EATOM  =      6107.80840369
  Solvation  Ediel_sol  =         0.00000000
  ---------------------------------------------------
  free energy    TOTEN  =       -24.08074445 eV

  energy without entropy =      -24.07794038  energy(sigma->0) =      -24.07934241


--------------------------------------------------------------------------------------------------------




--------------------------------------- Iteration      1(   4)  ---------------------------------------


     EDDAV:  cpu time      6.9807: real time      6.9819
       DOS:  cpu time      0.0013: real time      0.0013
    --------------------------------------------
      LOOP:  cpu time      6.9820: real time      6.9831

 eigenvalue-minimisations  : 20388
 total energy-change (2. order) :-0.2782853E+00  (-0.2780586E+00)
 number of electron      44.0000000 magnetization       4.0000000
 augmentation part       44.0000000 magnetization       4.0000000

 Free energy of the ion-electron system (eV)
  ---------------------------------------------------
  alpha Z        PSCENC =       264.60919239
  Ewald energy   TEWEN  =     -4637.17866551
  -Hartree energ DENC   =     -1556.19354633
  -exchange      EXHF   =         0.00000000
  -V(xc)+E(xc)   XCENC  =       221.00441200
  PAW double counting   =      5208.65407777    -5154.59282805
  entropy T*S    EENTRO =        -0.00285521
  eigenvalues    EBANDS =      -478.46722053
  atomic energy  EATOM  =      6107.80840369
  Solvation  Ediel_sol  =         0.00000000
  ---------------------------------------------------
  free energy    TOTEN  =       -24.35902977 eV

  energy without entropy =      -24.35617456  energy(sigma->0) =      -24.35760216


--------------------------------------------------------------------------------------------------------




--------------------------------------- Iteration      1(   5)  ---------------------------------------


     EDDAV:  cpu time      7.5115: real time      7.6796
       DOS:  cpu time      0.0013: real time      0.0013
    CHARGE:  cpu time      0.5908: real time      0.5908
    MIXING:  cpu time      0.0010: real time      0.0010
    --------------------------------------------
      LOOP:  cpu time      8.1046: real time      8.2726

 eigenvalue-minimisations  : 20888
 total energy-change (2. order) :-0.2866621E-02  (-0.2866431E-02)
 number of electron      44.0000001 magnetization       0.7559799
 augmentation part       16.2041484 magnetization       0.5743762

 Broyden mixing:
  rms(total) = 0.17557E+01    rms(broyden)= 0.17551E+01
  rms(prec ) = 0.26754E+01
  weight for this iteration     100.00

 Free energy of the ion-electron system (eV)
  ---------------------------------------------------
  alpha Z        PSCENC =       264.60919239
  Ewald energy   TEWEN  =     -4637.17866551
  -Hartree energ DENC   =     -1556.19354633
  -exchange      EXHF   =         0.00000000
  -V(xc)+E(xc)   XCENC  =       221.00441200
  PAW double counting   =      5208.65407777    -5154.59282805
  entropy T*S    EENTRO =        -0.00285757
  eigenvalues    EBANDS =      -478.47008479
  atomic energy  EATOM  =      6107.80840369
  Solvation  Ediel_sol  =         0.00000000
  ---------------------------------------------------
  free energy    TOTEN  =       -24.36189639 eV

  energy without entropy =      -24.35903882  energy(sigma->0) =      -24.36046760


--------------------------------------------------------------------------------------------------------




--------------------------------------- Iteration      1(   6)  ---------------------------------------


    POTLOK:  cpu time      0.0805: real time      0.0807
[...]
      9      -0.2568      1.00000
     10      -0.2568      1.00000
     11       0.7289      1.00000
     12       0.7289      1.00000
     13       1.2803      1.00000
     14       1.2803      1.00000
     15       4.1311      1.00000
     16       4.1311      1.00000
     17       4.5894      1.00000
     18       4.5894      1.00000
     19       5.3072      1.00000
     20       5.3072      1.00000
     21       6.0183      1.00000
     22       6.0183      1.00000
     23       7.7728      0.00000
     24       7.7728      0.00000
     25      12.4851      0.00000
     26      12.4851      0.00000
     27      18.3419      0.00000
     28      18.3419      0.00000

 k-point   164 :       0.4167    0.3333    0.5000
  band No.  band energies     occupation 
      1     -44.0373      1.00000
      2     -44.0204      1.00000
      3     -43.9139      1.00000
      4     -43.9130      1.00000
      5     -43.1787      1.00000
      6     -43.1659      1.00000
      7     -12.5630      1.00000
      8     -12.4302      1.00000
      9      -0.1370      1.00000
     10      -0.0685      1.00000
     11       0.3404      1.00000
     12       0.8302      1.00000
     13       0.9714      1.00000
     14       1.4384      1.00000
     15       4.0058      1.00000
     16       4.0423      1.00000
     17       4.7231      1.00000
     18       4.7633      1.00000
     19       5.1352      1.00000
     20       5.2583      1.00000
     21       6.1262      1.00000
     22       6.5187      1.00000
     23       7.7626      0.00000
     24       7.8465      0.00000
     25      12.0764      0.00000
     26      12.6931      0.00000
     27      17.5452      0.00000
     28      18.1757      0.00000

 k-point   165 :       0.5000    0.3333    0.5000
  band No.  band energies     occupation 
      1     -44.0429      1.00000
      2     -44.0198      1.00000
      3     -43.9135      1.00000
      4     -43.9123      1.00000
      5     -43.1829      1.00000
      6     -43.1655      1.00000
      7     -12.5743      1.00000
      8     -12.3924      1.00000
      9      -0.0878      1.00000
     10       0.0962      1.00000
     11       0.1897      1.00000
     12       0.6286      1.00000
     13       1.0013      1.00000
     14       1.5143      1.00000
     15       3.9584      1.00000
     16       3.9939      1.00000
     17       4.8625      1.00000
     18       4.9109      1.00000
     19       4.9216      1.00000
     20       5.1990      1.00000
     21       6.1721      1.00000
     22       6.7198      0.99999
     23       7.8234      0.00000
     24       7.8669      0.00000
     25      11.8607      0.00000
     26      12.7808      0.00000
     27      17.2524      0.00000
     28      17.9634      0.00000

 k-point   166 :       0.4167    0.4167    0.5000
  band No.  band energies     occupation 
      1     -44.0357      1.00000
      2     -44.0357      1.00000
      3     -43.9120      1.00000
      4     -43.9120      1.00000
      5     -43.1775      1.00000
      6     -43.1775      1.00000
      7     -12.4636      1.00000
      8     -12.4636      1.00000
      9       0.0950      1.00000
     10       0.0950      1.00000
     11       0.5148      1.00000
     12       0.5148      1.00000
     13       0.9641      1.00000
     14       0.9641      1.00000
     15       3.9236      1.00000
     16       3.9236      1.00000
     17       4.8816      1.00000
     18       4.8816      1.00000
     19       5.2490      1.00000
     20       5.2490      1.00000
     21       6.5965      1.00000
     22       6.5965      1.00000
     23       7.7134      0.00000
     24       7.7134      0.00000
     25      12.2651      0.00000
     26      12.2651      0.00000
     27      18.3889      0.00000
     28      18.3889      0.00000

 k-point   167 :       0.5000    0.4167    0.5000
  band No.  band energies     occupation 
      1     -44.0413      1.00000
      2     -44.0352      1.00000
      3     -43.9117      1.00000
      4     -43.9114      1.00000
      5     -43.1817      1.00000
      6     -43.1770      1.00000
      7     -12.4757      1.00000
      8     -12.4266      1.00000
      9       0.1537      1.00000
     10       0.3681      1.00000
     11       0.3718      1.00000
     12       0.5311      1.00000
     13       0.6484      1.00000
     14       1.0068      1.00000
     15       3.8772      1.00000
     16       3.8794      1.00000
     17       4.9363      1.00000
     18       4.9480      1.00000
     19       5.2149      1.00000
     20       5.2935      1.00000
     21       6.6283      1.00000
     22       6.8094      0.95858
     23       7.6843      0.00000
     24       7.6889      0.00000
     25      12.0651      0.00000
     26      12.3420      0.00000
     27      18.1597      0.00000
     28      18.5103      0.00000

 k-point   168 :       0.5000    0.5000    0.5000
  band No.  band energies     occupation 
      1     -44.0408      1.00000
      2     -44.0408      1.00000
      3     -43.9110      1.00000
      4     -43.9110      1.00000
      5     -43.1813      1.00000
      6     -43.1813      1.00000
      7     -12.4390      1.00000
      8     -12.4390      1.00000
      9       0.4382      1.00000
     10       0.4382      1.00000
     11       0.4965      1.00000
     12       0.4965      1.00000
     13       0.5653      1.00000
     14       0.5653      1.00000
     15       3.8339      1.00000
     16       3.8339      1.00000
     17       4.9607      1.00000
     18       4.9607      1.00000
     19       5.3292      1.00000
     20       5.3292      1.00000
     21       6.8404      0.80453
     22       6.8404      0.80453
     23       7.6265      0.00000
     24       7.6265      0.00000
     25      12.1466      0.00000
     26      12.1466      0.00000
     27      18.5671      0.00000
     28      18.5674      0.00000


--------------------------------------------------------------------------------------------------------


 soft charge-density along one line, spin component            1
         0         1         2         3         4         5         6         7         8         9
 total charge-density along one line
 
 soft charge-density along one line, spin component            2
         0         1         2         3         4         5         6         7         8         9
 total charge-density along one line
 
 pseudopotential strength for first ion, spin component:            1
-38.789  -0.000  -0.000   9.102   0.000   0.000   0.000  -0.000
 -0.000 -39.201  -0.000   0.000   9.335   0.000   0.000   0.000
 -0.000  -0.000 -39.228   0.000   0.000   9.354   0.000   0.000
  9.102   0.000   0.000   7.646  -0.000  -0.000  -0.000   0.000
  0.000   9.335   0.000  -0.000   7.591  -0.000  -0.000  -0.000
  0.000   0.000   9.354  -0.000  -0.000   7.589  -0.000  -0.000
  0.000   0.000   0.000  -0.000  -0.000  -0.000  -3.751  -0.000
 -0.000   0.000   0.000   0.000  -0.000  -0.000  -0.000  -3.730
  0.000  -0.000  -0.000   0.000   0.000   0.000   0.000   0.000
  0.000   0.000  -0.000  -0.000  -0.000   0.000  -0.000   0.000
  0.000  -0.000   0.000  -0.000   0.000  -0.000  -0.000   0.000
  0.000   0.000   0.000  -0.000  -0.000  -0.000  -3.563  -0.000
 -0.000   0.000   0.000   0.000  -0.000  -0.000  -0.000  -3.539
  0.000  -0.000  -0.000   0.000   0.000   0.000   0.000   0.000
  0.000   0.000  -0.000  -0.000  -0.000   0.000  -0.000   0.000
  0.000  -0.000   0.000  -0.000   0.000  -0.000  -0.000   0.000
 -0.000   0.000  -0.000   0.000   0.000  -0.000   0.000   0.000
 -0.000   0.000  -0.000   0.000   0.000  -0.000   0.000   0.000
 pseudopotential strength for first ion, spin component:            2
-38.789  -0.000  -0.000   9.102   0.000   0.000   0.000  -0.000
 -0.000 -39.201  -0.000   0.000   9.335   0.000   0.000   0.000
 -0.000  -0.000 -39.228   0.000   0.000   9.354   0.000   0.000
  9.102   0.000   0.000   7.646  -0.000  -0.000  -0.000   0.000
  0.000   9.335   0.000  -0.000   7.591  -0.000  -0.000  -0.000
  0.000   0.000   9.354  -0.000  -0.000   7.589  -0.000  -0.000
  0.000   0.000   0.000  -0.000  -0.000  -0.000  -3.751  -0.000
 -0.000   0.000   0.000   0.000  -0.000  -0.000  -0.000  -3.730
 -0.000  -0.000  -0.000   0.000   0.000   0.000   0.000   0.000
  0.000   0.000  -0.000  -0.000  -0.000   0.000  -0.000   0.000
  0.000  -0.000   0.000  -0.000   0.000  -0.000  -0.000   0.000
  0.000   0.000   0.000  -0.000  -0.000  -0.000  -3.563  -0.000
 -0.000   0.000   0.000   0.000  -0.000  -0.000  -0.000  -3.539
 -0.000  -0.000  -0.000   0.000   0.000   0.000   0.000   0.000
  0.000   0.000  -0.000  -0.000  -0.000   0.000  -0.000   0.000
  0.000  -0.000   0.000  -0.000   0.000  -0.000  -0.000   0.000
 -0.000   0.000  -0.000   0.000   0.000  -0.000   0.000   0.000
 -0.000   0.000  -0.000   0.000   0.000  -0.000   0.000   0.000
 total augmentation occupancy for first ion, spin component:            1
  1.998   0.000   0.000  -0.011  -0.000  -0.000   0.000   0.000   0.000   0.000   0.000   0.000   0.000   0.000   0.000   0.000
  0.000   1.998   0.000  -0.000  -0.020  -0.000   0.000   0.000   0.000   0.000   0.000   0.000   0.000   0.000   0.000   0.000
  0.000   0.000   1.998  -0.000  -0.000  -0.021   0.000   0.000   0.000   0.000   0.000   0.000   0.000   0.000   0.000   0.000
 -0.011  -0.000  -0.000   0.045   0.000   0.000   0.000   0.000   0.000   0.000   0.000   0.000   0.000   0.000   0.000   0.000
 -0.000  -0.020  -0.000   0.000   0.134   0.000   0.000   0.000   0.000   0.000   0.000   0.000   0.000   0.000   0.000   0.000
 -0.000  -0.000  -0.021   0.000   0.000   0.159   0.000   0.000   0.000   0.000   0.000   0.000   0.000   0.000   0.000   0.000
  0.000   0.000   0.000   0.000   0.000   0.000   2.217   0.000  -0.000   0.000  -0.000  -0.323  -0.000   0.000  -0.000   0.000
  0.000   0.000   0.000   0.000   0.000   0.000   0.000   2.151   0.000   0.000  -0.000  -0.000  -0.277   0.000  -0.000   0.000
  0.000   0.000   0.000   0.000   0.000   0.000  -0.000   0.000   2.377   0.000   0.169   0.000   0.000  -0.546  -0.000  -0.116
  0.000   0.000   0.000   0.000   0.000   0.000   0.000   0.000   0.000   4.853   0.000  -0.000  -0.000  -0.000  -2.782  -0.000
  0.000   0.000   0.000   0.000   0.000   0.000  -0.000  -0.000   0.169   0.000   3.104   0.000   0.000  -0.111  -0.000  -1.168
  0.000   0.000   0.000   0.000   0.000   0.000  -0.323  -0.000   0.000  -0.000   0.000   0.374   0.000  -0.000   0.000  -0.000
  0.000   0.000   0.000   0.000   0.000   0.000  -0.000  -0.277   0.000  -0.000   0.000   0.000   0.370   0.000   0.000  -0.000
  0.000   0.000   0.000   0.000   0.000   0.000   0.000   0.000  -0.546  -0.000  -0.111  -0.000   0.000   0.672   0.000  -0.016
  0.000   0.000   0.000   0.000   0.000   0.000  -0.000  -0.000  -0.000  -2.782  -0.000   0.000   0.000   0.000   1.855   0.000
  0.000   0.000   0.000   0.000   0.000   0.000   0.000   0.000  -0.116  -0.000  -1.168  -0.000  -0.000  -0.016   0.000   1.090
  0.000   0.000   0.000   0.000   0.000   0.000  -0.000  -0.000   0.070   0.000   0.420   0.000   0.000  -0.273  -0.000  -0.849
  0.000   0.000   0.000   0.000   0.000   0.000  -0.000  -0.000   0.022  -0.000  -0.001  -0.000  -0.000   0.023   0.000   0.091
 total augmentation occupancy for first ion, spin component:            2
 -0.000  -0.000  -0.000  -0.000  -0.000  -0.000   0.000   0.000   0.000   0.000   0.000   0.000   0.000   0.000   0.000   0.000
 -0.000  -0.000  -0.000  -0.000  -0.000  -0.000   0.000   0.000   0.000   0.000   0.000   0.000   0.000   0.000   0.000   0.000
 -0.000  -0.000  -0.000  -0.000  -0.000  -0.000   0.000   0.000   0.000   0.000   0.000   0.000   0.000   0.000   0.000   0.000
 -0.000  -0.000  -0.000  -0.000  -0.000  -0.000   0.000   0.000   0.000   0.000   0.000   0.000   0.000   0.000   0.000   0.000
 -0.000  -0.000  -0.000  -0.000   0.000   0.000   0.000   0.000   0.000   0.000   0.000   0.000   0.000   0.000   0.000   0.000
 -0.000  -0.000  -0.000  -0.000   0.000   0.000   0.000   0.000   0.000   0.000   0.000   0.000   0.000   0.000   0.000   0.000
  0.000   0.000   0.000   0.000   0.000   0.000   0.000   0.000  -0.000   0.000   0.000  -0.000  -0.000   0.000  -0.000  -0.000
  0.000   0.000   0.000   0.000   0.000   0.000   0.000  -0.000  -0.000  -0.000  -0.000  -0.000   0.000   0.000   0.000   0.000
  0.000   0.000   0.000   0.000   0.000   0.000  -0.000  -0.000   0.000   0.000   0.000   0.000   0.000  -0.000  -0.000   0.000
  0.000   0.000   0.000   0.000   0.000   0.000   0.000  -0.000   0.000   0.000   0.000  -0.000   0.000  -0.000  -0.000  -0.000
  0.000   0.000   0.000   0.000   0.000   0.000   0.000  -0.000   0.000   0.000   0.000  -0.000   0.000   0.000  -0.000  -0.000
  0.000   0.000   0.000   0.000   0.000   0.000  -0.000  -0.000   0.000  -0.000  -0.000   0.000   0.000  -0.000   0.000  -0.000
  0.000   0.000   0.000   0.000   0.000   0.000  -0.000   0.000   0.000   0.000   0.000   0.000   0.000  -0.000   0.000  -0.000
  0.000   0.000   0.000   0.000   0.000   0.000   0.000   0.000  -0.000  -0.000   0.000  -0.000  -0.000   0.000   0.000  -0.000
  0.000   0.000   0.000   0.000   0.000   0.000  -0.000   0.000  -0.000  -0.000  -0.000   0.000   0.000   0.000   0.000   0.000
  0.000   0.000   0.000   0.000   0.000   0.000  -0.000   0.000   0.000  -0.000  -0.000  -0.000  -0.000  -0.000   0.000   0.000
  0.000   0.000   0.000   0.000   0.000   0.000  -0.000  -0.000   0.000   0.000   0.000  -0.000  -0.000   0.000   0.000   0.000
  0.000   0.000   0.000   0.000   0.000   0.000   0.000   0.000  -0.000  -0.000  -0.000   0.000   0.000  -0.000  -0.000  -0.000


------------------------ aborting loop because EDIFF is reached ----------------------------------------





 total charge

# of ion       s       p       d       tot
------------------------------------------
    1        0.300   6.191   7.924  14.415
    2        0.300   6.191   7.924  14.415
    3        1.562   3.390   0.000   4.953
    4        1.562   3.390   0.000   4.953
--------------------------------------------------
tot          3.724  19.163  15.848  38.735



 magnetization (x)

# of ion       s       p       d       tot
------------------------------------------
    1       -0.000  -0.000   0.000   0.000
    2       -0.000  -0.000   0.000   0.000
    3        0.000   0.000   0.000   0.000
    4        0.000   0.000   0.000   0.000
--------------------------------------------------
tot          0.000   0.000   0.000   0.000
 
    CHARGE:  cpu time      0.5858: real time      0.5859
    FORLOC:  cpu time      0.0010: real time      0.0010
    FORNL :  cpu time      0.7580: real time      0.7584
    FORCOR:  cpu time      0.4265: real time      0.4712
    FORHAR:  cpu time      0.0040: real time      0.0040
    MIXING:  cpu time      0.0011: real time      0.0011
    OFIELD:  cpu time      0.0000: real time      0.0000

 ---------------------------------------------------------------------------------------------

         DFTD3 V3.0 Rev 1        
 DF pbe       
 parameters
 k1-k3        =   16.0000    1.3333   -4.0000
 Edisp (eV)   -1.24372

 E6    (eV) :    -0.7446
 E8    (eV) :    -0.4991
 % E8        : 40.13
    FORVDW:  cpu time      0.0081: real time      0.0081

 VOLUME and BASIS-vectors are now :
 -----------------------------------------------------------------------------
  energy-cutoff  :      520.00
  volume of cell :       50.08
      direct lattice vectors                 reciprocal lattice vectors
     3.053604110  0.000000000  0.000000000     0.327481875 -0.000000000  0.000000000
     0.000000000  3.053604110  0.000000000     0.000000000  0.327481875  0.000000000
     0.000000000  0.000000000  5.371256790    -0.000000000 -0.000000000  0.186176167

  length of vectors
     3.053604110  3.053604110  5.371256790     0.327481875  0.327481875  0.186176167


 FORCES acting on ions
    electron-ion (+dipol)            ewald-force                    non-local-force                 convergence-correction
 -----------------------------------------------------------------------------------------------
   0.629E-12 -.841E-14 -.685E-11   0.739E-14 -.375E-14 0.568E-13   -.182E-24 0.000E+00 0.000E+00   0.401E-14 -.274E-13 0.243E-12
   -.128E-13 0.621E-12 -.192E-12   0.256E-14 0.123E-13 -.568E-13   0.169E-24 0.000E+00 0.000E+00   -.353E-13 -.216E-13 -.121E-12
   -.428E-13 0.112E-11 0.108E-11   0.312E-15 0.187E-13 0.119E-12   -.210E-16 -.694E-17 0.111E-15   0.112E-12 -.691E-13 -.877E-13
   0.203E-13 -.123E-11 -.995E-12   -.648E-14 -.261E-13 -.119E-12   0.859E-17 0.694E-17 0.111E-15   -.116E-12 0.540E-13 0.116E-12
 -----------------------------------------------------------------------------------------------
   0.594E-12 0.500E-12 -.696E-11   0.379E-14 0.117E-14 0.128E-18   -.125E-16 0.000E+00 0.222E-15   -.351E-13 -.641E-13 0.150E-12
 
 
 POSITION                                       TOTAL-FORCE (eV/Angst)
 -----------------------------------------------------------------------------------
      1.52680      0.00000      2.68563        -0.000000      0.000000      0.000000
      0.00000      1.52680      0.00000        -0.000000      0.000000      0.000000
      0.00000      0.00000      4.02844         0.000000      0.000000      0.000000
      0.00000      0.00000      1.34281         0.000000      0.000000     -0.000000
 -----------------------------------------------------------------------------------
    total drift:                                0.000000      0.000000     -0.000000


--------------------------------------------------------------------------------------------------------



  FREE ENERGIE OF THE ION-ELECTRON SYSTEM (eV)
  ---------------------------------------------------
  free  energy   TOTEN  =       -23.44240032 eV

  energy  without entropy=      -23.44112963  energy(sigma->0) =      -23.44176498
 


--------------------------------------------------------------------------------------------------------


    POTLOK:  cpu time      0.3925: real time      0.4392


--------------------------------------------------------------------------------------------------------


     LOOP+:  cpu time    118.6424: real time    120.8922
    4ORBIT:  cpu time      0.0000: real time      0.0000



 total charge

# of ion       s       p       d       tot
------------------------------------------
    1        0.300   6.191   7.924  14.415
    2        0.300   6.191   7.924  14.415
    3        1.562   3.390   0.000   4.953
    4        1.562   3.390   0.000   4.953
--------------------------------------------------
tot          3.724  19.163  15.848  38.735



 magnetization (x)

# of ion       s       p       d       tot
------------------------------------------
    1       -0.000  -0.000   0.000   0.000
    2       -0.000  -0.000   0.000   0.000
    3        0.000   0.000   0.000   0.000
    4        0.000   0.000   0.000   0.000
--------------------------------------------------
tot          0.000   0.000   0.000   0.000
 

 total amount of memory used by VASP MPI-rank0   162698. kBytes
=======================================================================

   base      :      30000. kBytes
   nonl-proj :      66470. kBytes
   fftplans  :       6896. kBytes
   grid      :       5621. kBytes
   one-center:        124. kBytes
   wavefun   :      53587. kBytes
 
  
  
 General timing and accounting informations for this job:
 ========================================================
  
                  Total CPU time used (sec):      120.778
                            User time (sec):      115.914
                          System time (sec):        4.864
                         Elapsed time (sec):      123.135
  
                   Maximum memory used (kb):      445428.
                   Average memory used (kb):          N/A
  
                          Minor page faults:       896721
                          Major page faults:            0
                 Voluntary context switches:          198
