149
Lattice="9.531709292017604 0.0 0.0 0.0 12.847751714415933 0.0 0.0 0.0 32.10284432209217" Properties=species:S:1:pos:R:3:move_mask:L:1:momenta:R:3 adsorbate_info="_JSON {\"site\": {\"coordinates\": [8.737395088034027, 12.243264845613425, 13.154815426819141], \"connectivity\": 2, \"topology\": [31, 70], \"n_vector\": [-0.016287000247147188, 0.4132712651297193, 0.9104622974297347], \"h_vector\": [0.5788099044831271, -0.7297838841192937, 0.36386065595498324], \"site_formula\": {\"O\": 2}}, \"smiles\": \"ClOC\", \"mdf\": 2.073455769223453, \"adsorbate_formula\": \"CH3O\"}" mace_E=-764.4372383070146 converged=T n_steps=144 d_min=1.853343630095809 site_type=unknown dE_rel_meV=0 original_idx=356 rank=3 E_MACE=-767.2577244897402 pbc="T T T"
O        3.17397516       4.46694576      11.21895339  T       0.00000000       0.00000000       0.00000000
O        1.58661909       0.29190369      12.06246939  T       0.00000000       0.00000000       0.00000000
O        1.60606220       2.70116771      12.83809354  T       0.00000000       0.00000000       0.00000000
O        9.52931867       4.84853864      13.69890999  T       0.00000000       0.00000000       0.00000000
O       -0.00333467       4.46087322      11.22176039  T       0.00000000       0.00000000       0.00000000
O        1.58861822      10.00826748       2.73351527  F       0.00000000       0.00000000       0.00000000
O        1.58861822      12.47529802       2.73351527  F       0.00000000       0.00000000       0.00000000
O        4.76584344       2.83874884       6.08591509  F       0.00000000       0.00000000       0.00000000
O        0.00000000       8.02984482       1.50000000  F       0.00000000       0.00000000       0.00000000
O        1.58861107       6.79705424       6.08592811  F       0.00000000       0.00000000       0.00000000
O        9.52918672       1.30749500       7.92906510  T       0.00000000       0.00000000       0.00000000
O        1.58861150       9.26263623       6.08591827  F       0.00000000       0.00000000       0.00000000
O        4.76583598       0.37317881       6.08593111  F       0.00000000       0.00000000       0.00000000
O        6.35075709      10.85385137      11.19876187  T       0.00000000       0.00000000       0.00000000
O        3.17723028       4.81790423       7.22598268  F       0.00000000       0.00000000       0.00000000
O        6.35447286       1.60596896       1.50000000  F       0.00000000       0.00000000       0.00000000
O        7.94309377       2.83875127       6.08591528  F       0.00000000       0.00000000       0.00000000
O        6.35447101       4.81790868       7.22598243  F       0.00000000       0.00000000       0.00000000
O        6.35447286       4.81790689       4.71193793  F       0.00000000       0.00000000       0.00000000
O        7.94185062       3.54726134       8.91402823  T       0.00000000       0.00000000       0.00000000
O        7.94155655       5.99970308       9.54377429  T       0.00000000       0.00000000       0.00000000
O        0.00000338      11.24178289       7.22597220  F       0.00000000       0.00000000       0.00000000
O        1.58680161       5.99933088       9.54401496  T       0.00000000       0.00000000       0.00000000
O        1.58563425       3.54760297       8.91443143  T       0.00000000       0.00000000       0.00000000
O        0.00000000       4.81790689       4.71193793  F       0.00000000       0.00000000       0.00000000
O        1.58512311      12.41981681       9.46806992  T       0.00000000       0.00000000       0.00000000
O       -0.00087396       8.23469683      10.40718847  T       0.00000000       0.00000000       0.00000000
O       -0.00195087      10.85513493      11.19587027  T       0.00000000       0.00000000       0.00000000
O        4.76585465       6.05142216       2.73351527  F       0.00000000       0.00000000       0.00000000
O        9.53086104       7.75354927       7.94962875  T       0.00000000       0.00000000       0.00000000
O        3.17723643       1.60596896       3.96703054  F       0.00000000       0.00000000       0.00000000
O        9.52968322      11.40473686      13.65948114  T       0.00000000       0.00000000       0.00000000
O        1.58467916       9.17153458      12.81134855  T       0.00000000       0.00000000       0.00000000
O        4.76585465       3.58439162       2.73351527  F       0.00000000       0.00000000       0.00000000
O        1.58355849       6.71904315      12.53776789  T       0.00000000       0.00000000       0.00000000
O        3.17723643       1.60596896       1.50000000  F       0.00000000       0.00000000       0.00000000
O        0.00000000       8.02984482       3.96703054  F       0.00000000       0.00000000       0.00000000
O        1.58929843       9.95670458       8.91793578  T       0.00000000       0.00000000       0.00000000
O        0.00000000      11.24178275       4.71193793  F       0.00000000       0.00000000       0.00000000
O        1.58861822       3.58439162       2.73351527  F       0.00000000       0.00000000       0.00000000
O        1.58861822       6.05142216       2.73351527  F       0.00000000       0.00000000       0.00000000
O        0.00000000       1.60596896       3.96703054  F       0.00000000       0.00000000       0.00000000
O        0.00000000       1.60596896       1.50000000  F       0.00000000       0.00000000       0.00000000
O        1.58861510       0.37317604       6.08592568  F       0.00000000       0.00000000       0.00000000
O        1.58861475       2.83876150       6.08591621  F       0.00000000       0.00000000       0.00000000
O        0.00000677       4.81790638       7.22598148  F       0.00000000       0.00000000       0.00000000
O        6.35824198       1.86171253      10.38638568  T       0.00000000       0.00000000       0.00000000
O        6.35546740       1.33360334       7.94539242  T       0.00000000       0.00000000       0.00000000
O       -0.00323363       1.86644955      10.34997226  T       0.00000000       0.00000000       0.00000000
O        7.91920812       2.69942853      12.84358137  T       0.00000000       0.00000000       0.00000000
O        4.76118829       0.29860213      12.41065599  T       0.00000000       0.00000000       0.00000000
O        4.75992393       2.71405682      12.83521759  T       0.00000000       0.00000000       0.00000000
O        3.17232462       4.85518138      13.69383940  T       0.00000000       0.00000000       0.00000000
O        6.36052975      11.35077513      13.65803014  T       0.00000000       0.00000000       0.00000000
O        4.76585465      10.00826748       2.73351527  F       0.00000000       0.00000000       0.00000000
O        4.76585465      12.47529802       2.73351527  F       0.00000000       0.00000000       0.00000000
O        3.17723643       8.02984482       3.96703054  F       0.00000000       0.00000000       0.00000000
O        3.17723643       8.02984482       1.50000000  F       0.00000000       0.00000000       0.00000000
O        4.76583213       9.26262741       6.08592309  F       0.00000000       0.00000000       0.00000000
O        3.17722243      11.24178386       7.22601453  F       0.00000000       0.00000000       0.00000000
O        3.17723643      11.24178275       4.71193793  F       0.00000000       0.00000000       0.00000000
O        4.76517589       9.95874800       8.92220615  T       0.00000000       0.00000000       0.00000000
O        4.76443372      12.42616156       9.52982211  T       0.00000000       0.00000000       0.00000000
O        3.17640784       8.23217663      10.40778044  T       0.00000000       0.00000000       0.00000000
O        3.17709480       7.75417811       7.94928735  T       0.00000000       0.00000000       0.00000000
O        4.76445514       6.71883428      12.52853764  T       0.00000000       0.00000000       0.00000000
O        4.76443900       9.16108267      12.79440872  T       0.00000000       0.00000000       0.00000000
O        3.16480645      11.36355538      13.65845636  T       0.00000000       0.00000000       0.00000000
O        3.17607798      10.85413366      11.19886437  T       0.00000000       0.00000000       0.00000000
O        7.94309108       3.58439162       2.73351527  F       0.00000000       0.00000000       0.00000000
O        7.93582592       0.29259263      12.08250609  T       0.00000000       0.00000000       0.00000000
O        3.17335396       1.33457041       7.94462925  T       0.00000000       0.00000000       0.00000000
O        3.16788725       1.86313927      10.38286523  T       0.00000000       0.00000000       0.00000000
O        4.76583238       6.79706024       6.08593407  F       0.00000000       0.00000000       0.00000000
O        6.35248862       4.85496036      13.69451055  T       0.00000000       0.00000000       0.00000000
O        4.76460349       5.99936316       9.54154605  T       0.00000000       0.00000000       0.00000000
O        6.35249752       4.46493633      11.21998579  T       0.00000000       0.00000000       0.00000000
O        7.94309108      10.00826748       2.73351527  F       0.00000000       0.00000000       0.00000000
O        7.94309108      12.47529802       2.73351527  F       0.00000000       0.00000000       0.00000000
O        6.35447286       8.02984482       3.96703054  F       0.00000000       0.00000000       0.00000000
O        6.35447286       8.02984482       1.50000000  F       0.00000000       0.00000000       0.00000000
O        7.94309077       6.79706319       6.08592610  F       0.00000000       0.00000000       0.00000000
O        6.35446208      11.24178289       7.22597601  F       0.00000000       0.00000000       0.00000000
O        6.35447286      11.24178275       4.71193793  F       0.00000000       0.00000000       0.00000000
O        7.94029236       9.95724757       8.91988449  T       0.00000000       0.00000000       0.00000000
O        7.94309115       9.26262662       6.08591614  F       0.00000000       0.00000000       0.00000000
O        6.35383401       8.23168360      10.40739423  T       0.00000000       0.00000000       0.00000000
O        4.76440418       3.54562600       8.91849454  T       0.00000000       0.00000000       0.00000000
O        7.94386582      12.42005374       9.47811667  T       0.00000000       0.00000000       0.00000000
O        3.17723643       4.81790689       4.71193793  F       0.00000000       0.00000000       0.00000000
O        6.35447286       1.60596896       3.96703054  F       0.00000000       0.00000000       0.00000000
O        7.94309701       0.37317906       6.08592278  F       0.00000000       0.00000000       0.00000000
O        7.94309108       6.05142216       2.73351527  F       0.00000000       0.00000000       0.00000000
O        7.94582240       6.71737314      12.53634102  T       0.00000000       0.00000000       0.00000000
O        6.35360949       7.75351032       7.94962152  T       0.00000000       0.00000000       0.00000000
O        7.94458328       9.16917446      12.80789433  T       0.00000000       0.00000000       0.00000000
Pd       4.76586017      11.24177762       5.96678586  F       0.00000000       0.00000000       0.00000000
Pd       4.76294545      11.14997929      12.44158137  T       0.00000000       0.00000000       0.00000000
Pd       3.17336885       7.95463771      12.38409691  T       0.00000000       0.00000000       0.00000000
Pd       1.58676556      11.17440041      12.44203621  T       0.00000000       0.00000000       0.00000000
Pd       3.17725104       8.02984249       5.93124939  F       0.00000000       0.00000000       0.00000000
Pd       9.53167951       8.02984246       5.93125040  F       0.00000000       0.00000000       0.00000000
Pd       7.94309108       1.60596896       2.73351527  F       0.00000000       0.00000000       0.00000000
Pd       6.35447286       4.81790689       2.73351527  F       0.00000000       0.00000000       0.00000000
Pd       1.58862042      11.24178075       5.96678264  F       0.00000000       0.00000000       0.00000000
Pd       9.53106634       7.95922352      12.38531389  T       0.00000000       0.00000000       0.00000000
Pd       6.35422806       1.52540661      12.35797352  T       0.00000000       0.00000000       0.00000000
Pd       6.35446907       1.60596427       5.93125186  F       0.00000000       0.00000000       0.00000000
Pd       0.00000000      11.24178275       2.73351527  F       0.00000000       0.00000000       0.00000000
Pd       1.58861822       8.02984482       2.73351527  F       0.00000000       0.00000000       0.00000000
Pd       7.95390386       1.56622055       9.16035613  T       0.00000000       0.00000000       0.00000000
Pd       6.35264490       4.76498434       9.24315385  T       0.00000000       0.00000000       0.00000000
Pd       3.17723643      11.24178275       2.73351527  F       0.00000000       0.00000000       0.00000000
Pd       4.76585465       8.02984482       2.73351527  F       0.00000000       0.00000000       0.00000000
Pd       9.52809896       1.48294718      12.47353750  T       0.00000000       0.00000000       0.00000000
Pd       4.76518754       7.97389435       9.17664729  T       0.00000000       0.00000000       0.00000000
Pd       1.58781069       7.97483667       9.17605304  T       0.00000000       0.00000000       0.00000000
Pd       7.94307467       4.81790887       5.96677722  F       0.00000000       0.00000000       0.00000000
Pd       9.53042746      11.18071051       9.23164078  T       0.00000000       0.00000000       0.00000000
Pd       9.52976169       4.76432769       9.24318699  T       0.00000000       0.00000000       0.00000000
Pd       7.94292229       4.70669843      12.47419020  T       0.00000000       0.00000000       0.00000000
Pd       4.76585465       1.60596896       2.73351527  F       0.00000000       0.00000000       0.00000000
Pd       4.76249834       4.70841173      12.47178964  T       0.00000000       0.00000000       0.00000000
Pd       7.94307042      11.24177723       5.96677003  F       0.00000000       0.00000000       0.00000000
Pd       6.35446228       8.02984189       5.93125037  F       0.00000000       0.00000000       0.00000000
Pd       6.35447286      11.24178275       2.73351527  F       0.00000000       0.00000000       0.00000000
Pd       7.94309108       8.02984482       2.73351527  F       0.00000000       0.00000000       0.00000000
Pd       3.16905058       1.52344669      12.35264085  T       0.00000000       0.00000000       0.00000000
Pd       1.57248466       1.56643542       9.15881897  T       0.00000000       0.00000000       0.00000000
Pd       3.17907640      11.18362674       9.23237680  T       0.00000000       0.00000000       0.00000000
Pd       7.94220046       7.97508576       9.17626646  T       0.00000000       0.00000000       0.00000000
Pd       6.35071038      11.18425608       9.23333548  T       0.00000000       0.00000000       0.00000000
Pd       1.58861839       4.81790857       5.96677563  F       0.00000000       0.00000000       0.00000000
Pd       4.76586828       4.81790686       5.96677661  F       0.00000000       0.00000000       0.00000000
Pd       3.17604675       4.76512175       9.24263367  T       0.00000000       0.00000000       0.00000000
Pd       4.76392950       1.56120728       9.16563769  T       0.00000000       0.00000000       0.00000000
Pd       7.93924881      11.17215116      12.44233328  T       0.00000000       0.00000000       0.00000000
Pd       6.35568702       7.95339314      12.38315459  T       0.00000000       0.00000000       0.00000000
Pd       3.17725665       1.60596829       5.93125128  F       0.00000000       0.00000000       0.00000000
Pd       0.00000000       4.81790689       2.73351527  F       0.00000000       0.00000000       0.00000000
Pd       9.53168164       1.60596920       5.93125239  F       0.00000000       0.00000000       0.00000000
Pd       3.17723643       4.81790689       2.73351527  F       0.00000000       0.00000000       0.00000000
Pd       1.58242153       4.70814984      12.47233532  T       0.00000000       0.00000000       0.00000000
Pd       1.58861822       1.60596896       2.73351527  F       0.00000000       0.00000000       0.00000000
O        8.10212497      13.47751223      17.26571076  T       0.00000000       0.00000000       0.00000000
C        8.92640503      13.49046780      16.36610805  T       0.00000000       0.00000000       0.00000000
H        9.51141148      14.41944938      16.12151506  T       0.00000000       0.00000000       0.00000000
H        9.14257584      12.59136120      15.73463074  T       0.00000000       0.00000000       0.00000000
H        9.55814430      13.78171887      13.91242385  T       0.00000000       0.00000000       0.00000000
