149
Lattice="9.531709292017604 0.0 0.0 0.0 12.847751714415933 0.0 0.0 0.0 32.10284432209217" Properties=species:S:1:pos:R:3:move_mask:L:1:momenta:R:3 adsorbate_info="_JSON {\"site\": {\"coordinates\": [8.737398905533208, 1.0014914203103435, 12.501122527231502], \"connectivity\": 2, \"topology\": [70, 114], \"n_vector\": [0.007750405918373902, 0.12217296581061866, 0.9924785628078511], \"h_vector\": [-0.7864156787875402, -0.598491663185941, 0.1528335998858188], \"site_formula\": {\"O\": 1, \"Pd\": 1}}, \"smiles\": \"ClOC\", \"mdf\": 1.973878522287862, \"adsorbate_formula\": \"CH3O\"}" mace_E=-764.8928817232318 converged=T n_steps=58 d_min=1.846198876149438 site_type=unknown dE_rel_meV=0 original_idx=334 rank=6 E_MACE=-767.2572873010396 pbc="T T T"
O        3.15910339       4.50249320      11.21561861  T       0.00000000       0.00000000       0.00000000
O        1.56643935       0.30638430      12.11676085  T       0.00000000       0.00000000       0.00000000
O        1.59426775       2.74602362      12.79156989  T       0.00000000       0.00000000       0.00000000
O        9.50415023       4.88742315      13.67796625  T       0.00000000       0.00000000       0.00000000
O       -0.01970744       4.51244695      11.21111442  T       0.00000000       0.00000000       0.00000000
O        1.58861822      10.00826748       2.73351527  F       0.00000000       0.00000000       0.00000000
O        1.58861822      12.47529802       2.73351527  F       0.00000000       0.00000000       0.00000000
O        4.76584344       2.83874884       6.08591509  F       0.00000000       0.00000000       0.00000000
O        0.00000000       8.02984482       1.50000000  F       0.00000000       0.00000000       0.00000000
O        1.58861107       6.79705424       6.08592811  F       0.00000000       0.00000000       0.00000000
O        9.52364819       1.35037602       7.96108929  T       0.00000000       0.00000000       0.00000000
O        1.58861150       9.26263623       6.08591827  F       0.00000000       0.00000000       0.00000000
O        4.76583598       0.37317881       6.08593111  F       0.00000000       0.00000000       0.00000000
O        6.32676885      10.89772753      11.20004434  T       0.00000000       0.00000000       0.00000000
O        3.17723028       4.81790423       7.22598268  F       0.00000000       0.00000000       0.00000000
O        6.35447286       1.60596896       1.50000000  F       0.00000000       0.00000000       0.00000000
O        7.94309377       2.83875127       6.08591528  F       0.00000000       0.00000000       0.00000000
O        6.35447101       4.81790868       7.22598243  F       0.00000000       0.00000000       0.00000000
O        6.35447286       4.81790689       4.71193793  F       0.00000000       0.00000000       0.00000000
O        7.93493070       3.57498007       8.93757264  T       0.00000000       0.00000000       0.00000000
O        7.93087538       6.03042977       9.54241819  T       0.00000000       0.00000000       0.00000000
O        0.00000338      11.24178289       7.22597220  F       0.00000000       0.00000000       0.00000000
O        1.57943188       6.03099449       9.54551625  T       0.00000000       0.00000000       0.00000000
O        1.57573499       3.57543163       8.93643971  T       0.00000000       0.00000000       0.00000000
O        0.00000000       4.81790689       4.71193793  F       0.00000000       0.00000000       0.00000000
O        1.57827535      12.44536374       9.47472280  T       0.00000000       0.00000000       0.00000000
O       -0.01082201       8.26124090      10.40828323  T       0.00000000       0.00000000       0.00000000
O       -0.01878874      10.88512906      11.19463274  T       0.00000000       0.00000000       0.00000000
O        4.76585465       6.05142216       2.73351527  F       0.00000000       0.00000000       0.00000000
O        9.52372012       7.77403571       7.94979822  T       0.00000000       0.00000000       0.00000000
O        3.17723643       1.60596896       3.96703054  F       0.00000000       0.00000000       0.00000000
O        9.50283466      11.32139265      13.65990519  T       0.00000000       0.00000000       0.00000000
O        1.56979615       9.18569519      12.80425528  T       0.00000000       0.00000000       0.00000000
O        4.76585465       3.58439162       2.73351527  F       0.00000000       0.00000000       0.00000000
O        1.56664126       6.74621706      12.53850165  T       0.00000000       0.00000000       0.00000000
O        3.17723643       1.60596896       1.50000000  F       0.00000000       0.00000000       0.00000000
O        0.00000000       8.02984482       3.96703054  F       0.00000000       0.00000000       0.00000000
O        1.58118037       9.98538963       8.92405798  T       0.00000000       0.00000000       0.00000000
O        0.00000000      11.24178275       4.71193793  F       0.00000000       0.00000000       0.00000000
O        1.58861822       3.58439162       2.73351527  F       0.00000000       0.00000000       0.00000000
O        1.58861822       6.05142216       2.73351527  F       0.00000000       0.00000000       0.00000000
O        0.00000000       1.60596896       3.96703054  F       0.00000000       0.00000000       0.00000000
O        0.00000000       1.60596896       1.50000000  F       0.00000000       0.00000000       0.00000000
O        1.58861510       0.37317604       6.08592568  F       0.00000000       0.00000000       0.00000000
O        1.58861475       2.83876150       6.08591621  F       0.00000000       0.00000000       0.00000000
O        0.00000677       4.81790638       7.22598148  F       0.00000000       0.00000000       0.00000000
O        6.33684450       1.87753510      10.38307996  T       0.00000000       0.00000000       0.00000000
O        6.35877540       1.36331706       7.95047114  T       0.00000000       0.00000000       0.00000000
O       -0.01145657       1.87564444      10.43954754  T       0.00000000       0.00000000       0.00000000
O        7.88365684       2.74410493      12.76447794  T       0.00000000       0.00000000       0.00000000
O        4.73756519       0.31463502      12.45091063  T       0.00000000       0.00000000       0.00000000
O        4.73843139       2.74251922      12.82109841  T       0.00000000       0.00000000       0.00000000
O        3.15130901       4.88649032      13.68801026  T       0.00000000       0.00000000       0.00000000
O        6.34032239      11.33636302      13.67131393  T       0.00000000       0.00000000       0.00000000
O        4.76585465      10.00826748       2.73351527  F       0.00000000       0.00000000       0.00000000
O        4.76585465      12.47529802       2.73351527  F       0.00000000       0.00000000       0.00000000
O        3.17723643       8.02984482       3.96703054  F       0.00000000       0.00000000       0.00000000
O        3.17723643       8.02984482       1.50000000  F       0.00000000       0.00000000       0.00000000
O        4.76583213       9.26262741       6.08592309  F       0.00000000       0.00000000       0.00000000
O        3.17722243      11.24178386       7.22601453  F       0.00000000       0.00000000       0.00000000
O        3.17723643      11.24178275       4.71193793  F       0.00000000       0.00000000       0.00000000
O        4.75541064       9.98904038       8.92809039  T       0.00000000       0.00000000       0.00000000
O        4.75444666      12.45639136       9.52632877  T       0.00000000       0.00000000       0.00000000
O        3.16634660       8.26138839      10.40769956  T       0.00000000       0.00000000       0.00000000
O        3.17101539       7.77498989       7.95061531  T       0.00000000       0.00000000       0.00000000
O        4.74525680       6.74299864      12.53140533  T       0.00000000       0.00000000       0.00000000
O        4.74390983       9.18003540      12.78895904  T       0.00000000       0.00000000       0.00000000
O        3.14905883      11.34160032      13.67115600  T       0.00000000       0.00000000       0.00000000
O        3.15932879      10.89275889      11.20378051  T       0.00000000       0.00000000       0.00000000
O        7.94309108       3.58439162       2.73351527  F       0.00000000       0.00000000       0.00000000
O        7.90511519       0.31480323      12.16300428  T       0.00000000       0.00000000       0.00000000
O        3.15652438       1.35946426       7.95304220  T       0.00000000       0.00000000       0.00000000
O        3.16658918       1.88223675      10.39051075  T       0.00000000       0.00000000       0.00000000
O        4.76583238       6.79706024       6.08593407  F       0.00000000       0.00000000       0.00000000
O        6.33488402       4.87524041      13.68855696  T       0.00000000       0.00000000       0.00000000
O        4.75423593       6.02987789       9.54483248  T       0.00000000       0.00000000       0.00000000
O        6.32690612       4.50403833      11.21306281  T       0.00000000       0.00000000       0.00000000
O        7.94309108      10.00826748       2.73351527  F       0.00000000       0.00000000       0.00000000
O        7.94309108      12.47529802       2.73351527  F       0.00000000       0.00000000       0.00000000
O        6.35447286       8.02984482       3.96703054  F       0.00000000       0.00000000       0.00000000
O        6.35447286       8.02984482       1.50000000  F       0.00000000       0.00000000       0.00000000
O        7.94309077       6.79706319       6.08592610  F       0.00000000       0.00000000       0.00000000
O        6.35446208      11.24178289       7.22597601  F       0.00000000       0.00000000       0.00000000
O        6.35447286      11.24178275       4.71193793  F       0.00000000       0.00000000       0.00000000
O        7.93144552       9.98663060       8.92606987  T       0.00000000       0.00000000       0.00000000
O        7.94309115       9.26262662       6.08591614  F       0.00000000       0.00000000       0.00000000
O        6.34281358       8.26321488      10.40727550  T       0.00000000       0.00000000       0.00000000
O        4.75470890       3.57392347       8.92362570  T       0.00000000       0.00000000       0.00000000
O        7.93335181      12.44690194       9.48657660  T       0.00000000       0.00000000       0.00000000
O        3.17723643       4.81790689       4.71193793  F       0.00000000       0.00000000       0.00000000
O        6.35447286       1.60596896       3.96703054  F       0.00000000       0.00000000       0.00000000
O        7.94309701       0.37317906       6.08592278  F       0.00000000       0.00000000       0.00000000
O        7.94309108       6.05142216       2.73351527  F       0.00000000       0.00000000       0.00000000
O        7.92167137       6.74649628      12.53967454  T       0.00000000       0.00000000       0.00000000
O        6.34647326       7.77314384       7.95007042  T       0.00000000       0.00000000       0.00000000
O        7.91996492       9.18695877      12.79587349  T       0.00000000       0.00000000       0.00000000
Pd       4.76586017      11.24177762       5.96678586  F       0.00000000       0.00000000       0.00000000
Pd       4.74125267      11.16857791      12.44961433  T       0.00000000       0.00000000       0.00000000
Pd       3.15442549       7.97733249      12.38120161  T       0.00000000       0.00000000       0.00000000
Pd       1.56468282      11.18365557      12.45033353  T       0.00000000       0.00000000       0.00000000
Pd       3.17725104       8.02984249       5.93124939  F       0.00000000       0.00000000       0.00000000
Pd       9.53167951       8.02984246       5.93125040  F       0.00000000       0.00000000       0.00000000
Pd       7.94309108       1.60596896       2.73351527  F       0.00000000       0.00000000       0.00000000
Pd       6.35447286       4.81790689       2.73351527  F       0.00000000       0.00000000       0.00000000
Pd       1.58862042      11.24178075       5.96678264  F       0.00000000       0.00000000       0.00000000
Pd       9.51132003       7.98003097      12.38393525  T       0.00000000       0.00000000       0.00000000
Pd       6.31258018       1.54802532      12.34589591  T       0.00000000       0.00000000       0.00000000
Pd       6.35446907       1.60596427       5.93125186  F       0.00000000       0.00000000       0.00000000
Pd       0.00000000      11.24178275       2.73351527  F       0.00000000       0.00000000       0.00000000
Pd       1.58861822       8.02984482       2.73351527  F       0.00000000       0.00000000       0.00000000
Pd       7.94263578       1.59029943       9.19054429  T       0.00000000       0.00000000       0.00000000
Pd       6.34168274       4.79522539       9.24020163  T       0.00000000       0.00000000       0.00000000
Pd       3.17723643      11.24178275       2.73351527  F       0.00000000       0.00000000       0.00000000
Pd       4.76585465       8.02984482       2.73351527  F       0.00000000       0.00000000       0.00000000
Pd       9.50137430       1.52610355      12.45883896  T       0.00000000       0.00000000       0.00000000
Pd       4.75660183       8.00314921       9.17643694  T       0.00000000       0.00000000       0.00000000
Pd       1.57970478       8.00346485       9.17548946  T       0.00000000       0.00000000       0.00000000
Pd       7.94307467       4.81790887       5.96677722  F       0.00000000       0.00000000       0.00000000
Pd       9.52123383      11.20924274       9.23186561  T       0.00000000       0.00000000       0.00000000
Pd       9.52114156       4.79818048       9.24011466  T       0.00000000       0.00000000       0.00000000
Pd       7.91862793       4.74749639      12.45422043  T       0.00000000       0.00000000       0.00000000
Pd       4.76585465       1.60596896       2.73351527  F       0.00000000       0.00000000       0.00000000
Pd       4.74145598       4.73700187      12.46931083  T       0.00000000       0.00000000       0.00000000
Pd       7.94307042      11.24177723       5.96677003  F       0.00000000       0.00000000       0.00000000
Pd       6.35446228       8.02984189       5.93125037  F       0.00000000       0.00000000       0.00000000
Pd       6.35447286      11.24178275       2.73351527  F       0.00000000       0.00000000       0.00000000
Pd       7.94309108       8.02984482       2.73351527  F       0.00000000       0.00000000       0.00000000
Pd       3.15004474       1.54544091      12.35671290  T       0.00000000       0.00000000       0.00000000
Pd       1.56734931       1.59055732       9.19216820  T       0.00000000       0.00000000       0.00000000
Pd       3.16976341      11.21133406       9.23549905  T       0.00000000       0.00000000       0.00000000
Pd       7.93295636       8.00361197       9.17570550  T       0.00000000       0.00000000       0.00000000
Pd       6.34077759      11.21325895       9.23368723  T       0.00000000       0.00000000       0.00000000
Pd       1.58861839       4.81790857       5.96677563  F       0.00000000       0.00000000       0.00000000
Pd       4.76586828       4.81790686       5.96677661  F       0.00000000       0.00000000       0.00000000
Pd       3.16697881       4.79549440       9.24246155  T       0.00000000       0.00000000       0.00000000
Pd       4.75431269       1.58613004       9.16166779  T       0.00000000       0.00000000       0.00000000
Pd       7.92125102      11.17886586      12.44304861  T       0.00000000       0.00000000       0.00000000
Pd       6.33352296       7.97688800      12.37942026  T       0.00000000       0.00000000       0.00000000
Pd       3.17725665       1.60596829       5.93125128  F       0.00000000       0.00000000       0.00000000
Pd       0.00000000       4.81790689       2.73351527  F       0.00000000       0.00000000       0.00000000
Pd       9.53168164       1.60596920       5.93125239  F       0.00000000       0.00000000       0.00000000
Pd       3.17723643       4.81790689       2.73351527  F       0.00000000       0.00000000       0.00000000
Pd       1.56627936       4.74313700      12.45974368  T       0.00000000       0.00000000       0.00000000
Pd       1.58861822       1.60596896       2.73351527  F       0.00000000       0.00000000       0.00000000
O        9.59391247       1.25685946      14.41804249  T       0.00000000       0.00000000       0.00000000
C        8.40241728       1.11281024      15.15611985  T       0.00000000       0.00000000       0.00000000
H        8.72237945       1.08888193      16.21476046  T       0.00000000       0.00000000       0.00000000
H        7.71088592       1.96754080      14.99445677  T       0.00000000       0.00000000       0.00000000
H        7.87728216       0.16274055      14.91455680  T       0.00000000       0.00000000       0.00000000
