149
Lattice="9.531709292017604 0.0 0.0 0.0 12.847751714415933 0.0 0.0 0.0 32.10284432209217" Properties=species:S:1:pos:R:3:move_mask:L:1:momenta:R:3 adsorbate_info="_JSON {\"site\": {\"coordinates\": [4.765850677409264, 1.605964843314103, 12.655513637622477], \"connectivity\": 2, \"topology\": [50, 51], \"n_vector\": [-0.003689323018381579, 0.0038066046437087737, 0.9999859492296641], \"h_vector\": [-5.307860429835415e-06, 0.9999999999688194, -5.847037496477012e-06], \"site_formula\": {\"O\": 2}}, \"smiles\": \"ClOC\", \"mdf\": 2.0008513327598036, \"adsorbate_formula\": \"CH3O\"}" mace_E=-764.8937521073833 converged=T n_steps=72 d_min=2.4121076385818316 site_type=unknown dE_rel_meV=0 original_idx=168 rank=385 E_MACE=-763.0111977257912 pbc="T T T"
O        3.16075186       4.48615094      11.21143152  T       0.00000000       0.00000000       0.00000000
O        1.57633078       0.29873330      12.44117396  T       0.00000000       0.00000000       0.00000000
O        1.58076533       2.72671606      12.82249146  T       0.00000000       0.00000000       0.00000000
O        9.51821814       4.87891064      13.68242738  T       0.00000000       0.00000000       0.00000000
O       -0.00562472       4.48731351      11.21181523  T       0.00000000       0.00000000       0.00000000
O        1.58861822      10.00826748       2.73351527  F       0.00000000       0.00000000       0.00000000
O        1.58861822      12.47529802       2.73351527  F       0.00000000       0.00000000       0.00000000
O        4.76584344       2.83874884       6.08591509  F       0.00000000       0.00000000       0.00000000
O        0.00000000       8.02984482       1.50000000  F       0.00000000       0.00000000       0.00000000
O        1.58861107       6.79705424       6.08592811  F       0.00000000       0.00000000       0.00000000
O        9.51540896       1.35434814       7.95295001  T       0.00000000       0.00000000       0.00000000
O        1.58861150       9.26263623       6.08591827  F       0.00000000       0.00000000       0.00000000
O        4.76583598       0.37317881       6.08593111  F       0.00000000       0.00000000       0.00000000
O        6.34742541      10.86842022      11.19217512  T       0.00000000       0.00000000       0.00000000
O        3.17723028       4.81790423       7.22598268  F       0.00000000       0.00000000       0.00000000
O        6.35447286       1.60596896       1.50000000  F       0.00000000       0.00000000       0.00000000
O        7.94309377       2.83875127       6.08591528  F       0.00000000       0.00000000       0.00000000
O        6.35447101       4.81790868       7.22598243  F       0.00000000       0.00000000       0.00000000
O        6.35447286       4.81790689       4.71193793  F       0.00000000       0.00000000       0.00000000
O        7.93502516       3.55826405       8.93483320  T       0.00000000       0.00000000       0.00000000
O        7.93667232       6.01590475       9.53419587  T       0.00000000       0.00000000       0.00000000
O        0.00000338      11.24178289       7.22597220  F       0.00000000       0.00000000       0.00000000
O        1.58351971       6.01430005       9.53350200  T       0.00000000       0.00000000       0.00000000
O        1.58313299       3.55658980       8.92286859  T       0.00000000       0.00000000       0.00000000
O        0.00000000       4.81790689       4.71193793  F       0.00000000       0.00000000       0.00000000
O        1.58377505      12.43967274       9.52453059  T       0.00000000       0.00000000       0.00000000
O       -0.00551848       8.25292712      10.40484581  T       0.00000000       0.00000000       0.00000000
O       -0.00678647      10.87149764      11.19965188  T       0.00000000       0.00000000       0.00000000
O        4.76585465       6.05142216       2.73351527  F       0.00000000       0.00000000       0.00000000
O        9.52829139       7.76661600       7.94808811  T       0.00000000       0.00000000       0.00000000
O        3.17723643       1.60596896       3.96703054  F       0.00000000       0.00000000       0.00000000
O        9.51616878      11.32526473      13.66644515  T       0.00000000       0.00000000       0.00000000
O        1.57656899       9.16563765      12.79019213  T       0.00000000       0.00000000       0.00000000
O        4.76585465       3.58439162       2.73351527  F       0.00000000       0.00000000       0.00000000
O        1.57713091       6.72871666      12.51875226  T       0.00000000       0.00000000       0.00000000
O        3.17723643       1.60596896       1.50000000  F       0.00000000       0.00000000       0.00000000
O        0.00000000       8.02984482       3.96703054  F       0.00000000       0.00000000       0.00000000
O        1.58196124       9.97329096       8.92776615  T       0.00000000       0.00000000       0.00000000
O        0.00000000      11.24178275       4.71193793  F       0.00000000       0.00000000       0.00000000
O        1.58861822       3.58439162       2.73351527  F       0.00000000       0.00000000       0.00000000
O        1.58861822       6.05142216       2.73351527  F       0.00000000       0.00000000       0.00000000
O        0.00000000       1.60596896       3.96703054  F       0.00000000       0.00000000       0.00000000
O        0.00000000       1.60596896       1.50000000  F       0.00000000       0.00000000       0.00000000
O        1.58861510       0.37317604       6.08592568  F       0.00000000       0.00000000       0.00000000
O        1.58861475       2.83876150       6.08591621  F       0.00000000       0.00000000       0.00000000
O        0.00000677       4.81790638       7.22598148  F       0.00000000       0.00000000       0.00000000
O        6.34813706       1.85490189      10.44069437  T       0.00000000       0.00000000       0.00000000
O        6.35034462       1.34313103       7.95782549  T       0.00000000       0.00000000       0.00000000
O       -0.00142903       1.86879270      10.39204182  T       0.00000000       0.00000000       0.00000000
O        7.96758160       2.73431861      12.78639903  T       0.00000000       0.00000000       0.00000000
O        4.75142828       0.29766636      12.17691481  T       0.00000000       0.00000000       0.00000000
O        4.72355402       2.72777875      12.78006782  T       0.00000000       0.00000000       0.00000000
O        3.16944024       4.87769407      13.68371926  T       0.00000000       0.00000000       0.00000000
O        6.34060683      11.30301120      13.65552333  T       0.00000000       0.00000000       0.00000000
O        4.76585465      10.00826748       2.73351527  F       0.00000000       0.00000000       0.00000000
O        4.76585465      12.47529802       2.73351527  F       0.00000000       0.00000000       0.00000000
O        3.17723643       8.02984482       3.96703054  F       0.00000000       0.00000000       0.00000000
O        3.17723643       8.02984482       1.50000000  F       0.00000000       0.00000000       0.00000000
O        4.76583213       9.26262741       6.08592309  F       0.00000000       0.00000000       0.00000000
O        3.17722243      11.24178386       7.22601453  F       0.00000000       0.00000000       0.00000000
O        3.17723643      11.24178275       4.71193793  F       0.00000000       0.00000000       0.00000000
O        4.76016731       9.97002107       8.92728408  T       0.00000000       0.00000000       0.00000000
O        4.75912308      12.42871785       9.48886069  T       0.00000000       0.00000000       0.00000000
O        3.17100693       8.25536808      10.40406395  T       0.00000000       0.00000000       0.00000000
O        3.17384819       7.77006645       7.94953194  T       0.00000000       0.00000000       0.00000000
O        4.75580700       6.73167829      12.51964938  T       0.00000000       0.00000000       0.00000000
O        4.75369708       9.17011524      12.79481661  T       0.00000000       0.00000000       0.00000000
O        3.17625892      11.31630004      13.66612311  T       0.00000000       0.00000000       0.00000000
O        3.16077943      10.87556405      11.19624722  T       0.00000000       0.00000000       0.00000000
O        7.94309108       3.58439162       2.73351527  F       0.00000000       0.00000000       0.00000000
O        7.93951656       0.29119673      12.11399246  T       0.00000000       0.00000000       0.00000000
O        3.18601472       1.35477652       7.95204482  T       0.00000000       0.00000000       0.00000000
O        3.16891332       1.85984799      10.38899001  T       0.00000000       0.00000000       0.00000000
O        4.76583238       6.79706024       6.08593407  F       0.00000000       0.00000000       0.00000000
O        6.34058282       4.88275324      13.67126954  T       0.00000000       0.00000000       0.00000000
O        4.75951792       6.01465911       9.53905766  T       0.00000000       0.00000000       0.00000000
O        6.34468296       4.49099328      11.20716889  T       0.00000000       0.00000000       0.00000000
O        7.94309108      10.00826748       2.73351527  F       0.00000000       0.00000000       0.00000000
O        7.94309108      12.47529802       2.73351527  F       0.00000000       0.00000000       0.00000000
O        6.35447286       8.02984482       3.96703054  F       0.00000000       0.00000000       0.00000000
O        6.35447286       8.02984482       1.50000000  F       0.00000000       0.00000000       0.00000000
O        7.94309077       6.79706319       6.08592610  F       0.00000000       0.00000000       0.00000000
O        6.35446208      11.24178289       7.22597601  F       0.00000000       0.00000000       0.00000000
O        6.35447286      11.24178275       4.71193793  F       0.00000000       0.00000000       0.00000000
O        7.93895740       9.97184521       8.92484473  T       0.00000000       0.00000000       0.00000000
O        7.94309115       9.26262662       6.08591614  F       0.00000000       0.00000000       0.00000000
O        6.34954273       8.25643316      10.40478282  T       0.00000000       0.00000000       0.00000000
O        4.76177223       3.55548310       8.93331858  T       0.00000000       0.00000000       0.00000000
O        7.93741760      12.43087120       9.47713278  T       0.00000000       0.00000000       0.00000000
O        3.17723643       4.81790689       4.71193793  F       0.00000000       0.00000000       0.00000000
O        6.35447286       1.60596896       3.96703054  F       0.00000000       0.00000000       0.00000000
O        7.94309701       0.37317906       6.08592278  F       0.00000000       0.00000000       0.00000000
O        7.94309108       6.05142216       2.73351527  F       0.00000000       0.00000000       0.00000000
O        7.93080033       6.73150489      12.52732680  T       0.00000000       0.00000000       0.00000000
O        6.34980903       7.76920512       7.94960452  T       0.00000000       0.00000000       0.00000000
O        7.93396163       9.17063457      12.80096871  T       0.00000000       0.00000000       0.00000000
Pd       4.76586017      11.24177762       5.96678586  F       0.00000000       0.00000000       0.00000000
Pd       4.75594539      11.16102324      12.43771654  T       0.00000000       0.00000000       0.00000000
Pd       3.16674261       7.96301965      12.37874310  T       0.00000000       0.00000000       0.00000000
Pd       1.57719415      11.14937416      12.44295735  T       0.00000000       0.00000000       0.00000000
Pd       3.17725104       8.02984249       5.93124939  F       0.00000000       0.00000000       0.00000000
Pd       9.53167951       8.02984246       5.93125040  F       0.00000000       0.00000000       0.00000000
Pd       7.94309108       1.60596896       2.73351527  F       0.00000000       0.00000000       0.00000000
Pd       6.35447286       4.81790689       2.73351527  F       0.00000000       0.00000000       0.00000000
Pd       1.58862042      11.24178075       5.96678264  F       0.00000000       0.00000000       0.00000000
Pd       9.51863703       7.96184218      12.37811444  T       0.00000000       0.00000000       0.00000000
Pd       6.34725856       1.50977327      12.46506887  T       0.00000000       0.00000000       0.00000000
Pd       6.35446907       1.60596427       5.93125186  F       0.00000000       0.00000000       0.00000000
Pd       0.00000000      11.24178275       2.73351527  F       0.00000000       0.00000000       0.00000000
Pd       1.58861822       8.02984482       2.73351527  F       0.00000000       0.00000000       0.00000000
Pd       7.92802346       1.57404030       9.19181613  T       0.00000000       0.00000000       0.00000000
Pd       6.34757365       4.78024348       9.23694107  T       0.00000000       0.00000000       0.00000000
Pd       3.17723643      11.24178275       2.73351527  F       0.00000000       0.00000000       0.00000000
Pd       4.76585465       8.02984482       2.73351527  F       0.00000000       0.00000000       0.00000000
Pd       9.52392698       1.53118337      12.35717218  T       0.00000000       0.00000000       0.00000000
Pd       4.76093459       7.98815891       9.17530929  T       0.00000000       0.00000000       0.00000000
Pd       1.58347413       7.98831422       9.17345793  T       0.00000000       0.00000000       0.00000000
Pd       7.94307467       4.81790887       5.96677722  F       0.00000000       0.00000000       0.00000000
Pd       9.52882792      11.19751882       9.23293971  T       0.00000000       0.00000000       0.00000000
Pd       9.52657409       4.77905335       9.23854166  T       0.00000000       0.00000000       0.00000000
Pd       7.93254675       4.72806919      12.45310080  T       0.00000000       0.00000000       0.00000000
Pd       4.76585465       1.60596896       2.73351527  F       0.00000000       0.00000000       0.00000000
Pd       4.75366955       4.72777217      12.45089371  T       0.00000000       0.00000000       0.00000000
Pd       7.94307042      11.24177723       5.96677003  F       0.00000000       0.00000000       0.00000000
Pd       6.35446228       8.02984189       5.93125037  F       0.00000000       0.00000000       0.00000000
Pd       6.35447286      11.24178275       2.73351527  F       0.00000000       0.00000000       0.00000000
Pd       7.94309108       8.02984482       2.73351527  F       0.00000000       0.00000000       0.00000000
Pd       3.15657709       1.52972949      12.35287977  T       0.00000000       0.00000000       0.00000000
Pd       1.58402164       1.57007445       9.16351080  T       0.00000000       0.00000000       0.00000000
Pd       3.16839134      11.19451755       9.23239763  T       0.00000000       0.00000000       0.00000000
Pd       7.93841870       7.98984268       9.17320901  T       0.00000000       0.00000000       0.00000000
Pd       6.34846754      11.19351120       9.23141946  T       0.00000000       0.00000000       0.00000000
Pd       1.58861839       4.81790857       5.96677563  F       0.00000000       0.00000000       0.00000000
Pd       4.76586828       4.81790686       5.96677661  F       0.00000000       0.00000000       0.00000000
Pd       3.17084537       4.77797178       9.23781560  T       0.00000000       0.00000000       0.00000000
Pd       4.77073033       1.57078425       9.19112761  T       0.00000000       0.00000000       0.00000000
Pd       7.93312084      11.16802297      12.44589111  T       0.00000000       0.00000000       0.00000000
Pd       6.34376410       7.96853548      12.38131244  T       0.00000000       0.00000000       0.00000000
Pd       3.17725665       1.60596829       5.93125128  F       0.00000000       0.00000000       0.00000000
Pd       0.00000000       4.81790689       2.73351527  F       0.00000000       0.00000000       0.00000000
Pd       9.53168164       1.60596920       5.93125239  F       0.00000000       0.00000000       0.00000000
Pd       3.17723643       4.81790689       2.73351527  F       0.00000000       0.00000000       0.00000000
Pd       1.57712274       4.72288420      12.46479455  T       0.00000000       0.00000000       0.00000000
Pd       1.58861822       1.60596896       2.73351527  F       0.00000000       0.00000000       0.00000000
O        6.46684248       1.29310737      14.43319129  T       0.00000000       0.00000000       0.00000000
C        5.32554056       0.92980010      15.16475400  T       0.00000000       0.00000000       0.00000000
H        5.56859331       1.15562560      16.22196098  T       0.00000000       0.00000000       0.00000000
H        4.42888872       1.51863910      14.87119199  T       0.00000000       0.00000000       0.00000000
H        5.09204268      -0.15327729      15.05803371  T       0.00000000       0.00000000       0.00000000
