149
Lattice="9.531709292017604 0.0 0.0 0.0 12.847751714415933 0.0 0.0 0.0 32.10284432209217" Properties=species:S:1:pos:R:3:move_mask:L:1:momenta:R:3 adsorbate_info="_JSON {\"site\": {\"coordinates\": [3.706779065549275, 9.503483405096155, 12.885499178800154], \"connectivity\": 3, \"topology\": [66, 67, 98], \"n_vector\": [0.0005800791668962512, -0.31231423661466595, 0.9499786740321903], \"h_vector\": [0.7864208813360711, 0.5984824771412168, 0.1528428014448507], \"site_formula\": {\"O\": 2, \"Pd\": 1}}, \"smiles\": \"ClOC\", \"mdf\": 2.0941519519627754, \"adsorbate_formula\": \"CH3O\"}" mace_E=-764.8914674723694 converged=T n_steps=54 d_min=0.9837426252661102 site_type=unknown dE_rel_meV=0 original_idx=132 rank=7 E_MACE=-767.2565686790937 pbc="T T T"
O        3.18075581       5.12006553      11.21289646  T       0.00000000       0.00000000       0.00000000
O        1.58687865       0.45365971      12.78981493  T       0.00000000       0.00000000       0.00000000
O        1.58879262       2.89201847      12.54088255  T       0.00000000       0.00000000       0.00000000
O        9.53599280       4.76165895      13.69225125  T       0.00000000       0.00000000       0.00000000
O       -0.00132619       5.13270282      11.21676518  T       0.00000000       0.00000000       0.00000000
O        1.58861822      10.00826748       2.73351527  F       0.00000000       0.00000000       0.00000000
O        1.58861822      12.47529802       2.73351527  F       0.00000000       0.00000000       0.00000000
O        4.76584344       2.83874884       6.08591509  F       0.00000000       0.00000000       0.00000000
O        0.00000000       8.02984482       1.50000000  F       0.00000000       0.00000000       0.00000000
O        1.58861107       6.79705424       6.08592811  F       0.00000000       0.00000000       0.00000000
O        9.53200979       1.86776782       7.95170136  T       0.00000000       0.00000000       0.00000000
O        1.58861150       9.26263623       6.08591827  F       0.00000000       0.00000000       0.00000000
O        4.76583598       0.37317881       6.08593111  F       0.00000000       0.00000000       0.00000000
O        6.36288801      11.58649684      11.20224672  T       0.00000000       0.00000000       0.00000000
O        3.17723028       4.81790423       7.22598268  F       0.00000000       0.00000000       0.00000000
O        6.35447286       1.60596896       1.50000000  F       0.00000000       0.00000000       0.00000000
O        7.94309377       2.83875127       6.08591528  F       0.00000000       0.00000000       0.00000000
O        6.35447101       4.81790868       7.22598243  F       0.00000000       0.00000000       0.00000000
O        6.35447286       4.81790689       4.71193793  F       0.00000000       0.00000000       0.00000000
O        7.94477427       3.60642183       9.54244704  T       0.00000000       0.00000000       0.00000000
O        7.94621854       6.06283344       8.92884950  T       0.00000000       0.00000000       0.00000000
O        0.00000338      11.24178289       7.22597220  F       0.00000000       0.00000000       0.00000000
O        1.59208283       6.06447648       8.93887695  T       0.00000000       0.00000000       0.00000000
O        1.58800564       3.60719129       9.54537689  T       0.00000000       0.00000000       0.00000000
O        0.00000000       4.81790689       4.71193793  F       0.00000000       0.00000000       0.00000000
O        1.58724027      12.49836425       8.93086284  T       0.00000000       0.00000000       0.00000000
O        0.00209417       7.76629361      10.39100012  T       0.00000000       0.00000000       0.00000000
O       -0.00466670      11.57989943      11.19945125  T       0.00000000       0.00000000       0.00000000
O        4.76585465       6.05142216       2.73351527  F       0.00000000       0.00000000       0.00000000
O        9.54461163       8.27479965       7.95025065  T       0.00000000       0.00000000       0.00000000
O        3.17723643       1.60596896       3.96703054  F       0.00000000       0.00000000       0.00000000
O        9.54485547      11.16792854      13.67609358  T       0.00000000       0.00000000       0.00000000
O        1.59568901       9.32231300      12.23857692  T       0.00000000       0.00000000       0.00000000
O        4.76585465       3.58439162       2.73351527  F       0.00000000       0.00000000       0.00000000
O        1.57025036       6.89281939      12.79332494  T       0.00000000       0.00000000       0.00000000
O        3.17723643       1.60596896       1.50000000  F       0.00000000       0.00000000       0.00000000
O        0.00000000       8.02984482       3.96703054  F       0.00000000       0.00000000       0.00000000
O        1.59042109      10.03603247       9.50099805  T       0.00000000       0.00000000       0.00000000
O        0.00000000      11.24178275       4.71193793  F       0.00000000       0.00000000       0.00000000
O        1.58861822       3.58439162       2.73351527  F       0.00000000       0.00000000       0.00000000
O        1.58861822       6.05142216       2.73351527  F       0.00000000       0.00000000       0.00000000
O        0.00000000       1.60596896       3.96703054  F       0.00000000       0.00000000       0.00000000
O        0.00000000       1.60596896       1.50000000  F       0.00000000       0.00000000       0.00000000
O        1.58861510       0.37317604       6.08592568  F       0.00000000       0.00000000       0.00000000
O        1.58861475       2.83876150       6.08591621  F       0.00000000       0.00000000       0.00000000
O        0.00000677       4.81790638       7.22598148  F       0.00000000       0.00000000       0.00000000
O        6.35151699       1.37656519      10.40593713  T       0.00000000       0.00000000       0.00000000
O        6.35271815       1.86707355       7.95164467  T       0.00000000       0.00000000       0.00000000
O       -0.00077758       1.37027796      10.40563381  T       0.00000000       0.00000000       0.00000000
O        7.94278301       2.89075704      12.53821652  T       0.00000000       0.00000000       0.00000000
O        4.76678997       0.44875242      12.80255781  T       0.00000000       0.00000000       0.00000000
O        4.76471711       2.88847156      12.54365151  T       0.00000000       0.00000000       0.00000000
O        3.18279093       4.75136892      13.67890644  T       0.00000000       0.00000000       0.00000000
O        6.35345907      11.14759507      13.67281262  T       0.00000000       0.00000000       0.00000000
O        4.76585465      10.00826748       2.73351527  F       0.00000000       0.00000000       0.00000000
O        4.76585465      12.47529802       2.73351527  F       0.00000000       0.00000000       0.00000000
O        3.17723643       8.02984482       3.96703054  F       0.00000000       0.00000000       0.00000000
O        3.17723643       8.02984482       1.50000000  F       0.00000000       0.00000000       0.00000000
O        4.76583213       9.26262741       6.08592309  F       0.00000000       0.00000000       0.00000000
O        3.17722243      11.24178386       7.22601453  F       0.00000000       0.00000000       0.00000000
O        3.17723643      11.24178275       4.71193793  F       0.00000000       0.00000000       0.00000000
O        4.76705820      10.03832138       9.47060128  T       0.00000000       0.00000000       0.00000000
O        4.76749745      12.50031485       8.92179219  T       0.00000000       0.00000000       0.00000000
O        3.17852376       7.77120032      10.43860859  T       0.00000000       0.00000000       0.00000000
O        3.17697870       8.28123278       7.95371786  T       0.00000000       0.00000000       0.00000000
O        4.81618933       6.88277416      12.75847476  T       0.00000000       0.00000000       0.00000000
O        4.77998693       9.33160712      12.10347723  T       0.00000000       0.00000000       0.00000000
O        3.17729718      11.18848262      13.66179271  T       0.00000000       0.00000000       0.00000000
O        3.18217148      11.59043702      11.19586764  T       0.00000000       0.00000000       0.00000000
O        7.94309108       3.58439162       2.73351527  F       0.00000000       0.00000000       0.00000000
O        7.94308807       0.45664413      12.78751599  T       0.00000000       0.00000000       0.00000000
O        3.17533497       1.86575486       7.95266489  T       0.00000000       0.00000000       0.00000000
O        3.17678742       1.37469943      10.40804057  T       0.00000000       0.00000000       0.00000000
O        4.76583238       6.79706024       6.08593407  F       0.00000000       0.00000000       0.00000000
O        6.35795918       4.75685221      13.68758805  T       0.00000000       0.00000000       0.00000000
O        4.76454898       6.06281664       8.93907191  T       0.00000000       0.00000000       0.00000000
O        6.36464770       5.12382874      11.21437867  T       0.00000000       0.00000000       0.00000000
O        7.94309108      10.00826748       2.73351527  F       0.00000000       0.00000000       0.00000000
O        7.94309108      12.47529802       2.73351527  F       0.00000000       0.00000000       0.00000000
O        6.35447286       8.02984482       3.96703054  F       0.00000000       0.00000000       0.00000000
O        6.35447286       8.02984482       1.50000000  F       0.00000000       0.00000000       0.00000000
O        7.94309077       6.79706319       6.08592610  F       0.00000000       0.00000000       0.00000000
O        6.35446208      11.24178289       7.22597601  F       0.00000000       0.00000000       0.00000000
O        6.35447286      11.24178275       4.71193793  F       0.00000000       0.00000000       0.00000000
O        7.94396458      10.02985758       9.52461488  T       0.00000000       0.00000000       0.00000000
O        7.94309115       9.26262662       6.08591614  F       0.00000000       0.00000000       0.00000000
O        6.36301365       7.75401883      10.38515827  T       0.00000000       0.00000000       0.00000000
O        4.76755636       3.60710249       9.54305317  T       0.00000000       0.00000000       0.00000000
O        7.94299552      12.49760959       8.92903541  T       0.00000000       0.00000000       0.00000000
O        3.17723643       4.81790689       4.71193793  F       0.00000000       0.00000000       0.00000000
O        6.35447286       1.60596896       3.96703054  F       0.00000000       0.00000000       0.00000000
O        7.94309701       0.37317906       6.08592278  F       0.00000000       0.00000000       0.00000000
O        7.94309108       6.05142216       2.73351527  F       0.00000000       0.00000000       0.00000000
O        7.95112222       6.89354891      12.81179101  T       0.00000000       0.00000000       0.00000000
O        6.34732182       8.26910270       7.95064070  T       0.00000000       0.00000000       0.00000000
O        7.95078388       9.32096606      12.46576242  T       0.00000000       0.00000000       0.00000000
Pd       4.76586017      11.24177762       5.96678586  F       0.00000000       0.00000000       0.00000000
Pd       4.77109395      11.29872537      12.44996268  T       0.00000000       0.00000000       0.00000000
Pd       3.19843452       8.10487887      12.46305250  T       0.00000000       0.00000000       0.00000000
Pd       1.59197881      11.31227343      12.44455714  T       0.00000000       0.00000000       0.00000000
Pd       3.17725104       8.02984249       5.93124939  F       0.00000000       0.00000000       0.00000000
Pd       9.53167951       8.02984246       5.93125040  F       0.00000000       0.00000000       0.00000000
Pd       7.94309108       1.60596896       2.73351527  F       0.00000000       0.00000000       0.00000000
Pd       6.35447286       4.81790689       2.73351527  F       0.00000000       0.00000000       0.00000000
Pd       1.58862042      11.24178075       5.96678264  F       0.00000000       0.00000000       0.00000000
Pd       9.53298957       8.08817474      12.35917628  T       0.00000000       0.00000000       0.00000000
Pd       6.35138941       1.65819557      12.38199254  T       0.00000000       0.00000000       0.00000000
Pd       6.35446907       1.60596427       5.93125186  F       0.00000000       0.00000000       0.00000000
Pd       0.00000000      11.24178275       2.73351527  F       0.00000000       0.00000000       0.00000000
Pd       1.58861822       8.02984482       2.73351527  F       0.00000000       0.00000000       0.00000000
Pd       7.94226713       1.63552304       9.17576558  T       0.00000000       0.00000000       0.00000000
Pd       6.35694800       4.84102870       9.24244050  T       0.00000000       0.00000000       0.00000000
Pd       3.17723643      11.24178275       2.73351527  F       0.00000000       0.00000000       0.00000000
Pd       4.76585465       8.02984482       2.73351527  F       0.00000000       0.00000000       0.00000000
Pd       9.53216233       1.66194154      12.37947426  T       0.00000000       0.00000000       0.00000000
Pd       4.75762798       8.04888392       9.18753850  T       0.00000000       0.00000000       0.00000000
Pd       1.59990719       8.05060884       9.18913606  T       0.00000000       0.00000000       0.00000000
Pd       7.94307467       4.81790887       5.96677722  F       0.00000000       0.00000000       0.00000000
Pd       9.52997632      11.27038222       9.23439769  T       0.00000000       0.00000000       0.00000000
Pd       9.53262207       4.84254573       9.24305954  T       0.00000000       0.00000000       0.00000000
Pd       7.94764451       4.89683011      12.46870347  T       0.00000000       0.00000000       0.00000000
Pd       4.76585465       1.60596896       2.73351527  F       0.00000000       0.00000000       0.00000000
Pd       4.77270966       4.89214642      12.45727974  T       0.00000000       0.00000000       0.00000000
Pd       7.94307042      11.24177723       5.96677003  F       0.00000000       0.00000000       0.00000000
Pd       6.35446228       8.02984189       5.93125037  F       0.00000000       0.00000000       0.00000000
Pd       6.35447286      11.24178275       2.73351527  F       0.00000000       0.00000000       0.00000000
Pd       7.94309108       8.02984482       2.73351527  F       0.00000000       0.00000000       0.00000000
Pd       3.17793912       1.65371009      12.38459155  T       0.00000000       0.00000000       0.00000000
Pd       1.58714514       1.63590491       9.17769991  T       0.00000000       0.00000000       0.00000000
Pd       3.17738038      11.27504780       9.23386237  T       0.00000000       0.00000000       0.00000000
Pd       7.94734114       8.05235600       9.16282812  T       0.00000000       0.00000000       0.00000000
Pd       6.35816314      11.27244487       9.23398612  T       0.00000000       0.00000000       0.00000000
Pd       1.58861839       4.81790857       5.96677563  F       0.00000000       0.00000000       0.00000000
Pd       4.76586828       4.81790686       5.96677661  F       0.00000000       0.00000000       0.00000000
Pd       3.17805848       4.83982559       9.24244750  T       0.00000000       0.00000000       0.00000000
Pd       4.76443210       1.63576331       9.17632127  T       0.00000000       0.00000000       0.00000000
Pd       7.94727174      11.31932482      12.45070838  T       0.00000000       0.00000000       0.00000000
Pd       6.36889179       8.09123821      12.34792215  T       0.00000000       0.00000000       0.00000000
Pd       3.17725665       1.60596829       5.93125128  F       0.00000000       0.00000000       0.00000000
Pd       0.00000000       4.81790689       2.73351527  F       0.00000000       0.00000000       0.00000000
Pd       9.53168164       1.60596920       5.93125239  F       0.00000000       0.00000000       0.00000000
Pd       3.17723643       4.81790689       2.73351527  F       0.00000000       0.00000000       0.00000000
Pd       1.59247364       4.89697123      12.46193954  T       0.00000000       0.00000000       0.00000000
Pd       1.58861822       1.60596896       2.73351527  F       0.00000000       0.00000000       0.00000000
O        3.40136665       8.29537005      14.42696296  T       0.00000000       0.00000000       0.00000000
C        2.32473797       8.76896802      15.18800061  T       0.00000000       0.00000000       0.00000000
H        2.64634494       8.65753195      16.24252408  T       0.00000000       0.00000000       0.00000000
H        2.13257989       9.84512202      14.97018716  T       0.00000000       0.00000000       0.00000000
H        1.39107102       8.19234530      15.01568429  T       0.00000000       0.00000000       0.00000000
