149
Lattice="9.531709292017604 0.0 0.0 0.0 12.847751714415933 0.0 0.0 0.0 32.10284432209217" Properties=species:S:1:pos:R:3:move_mask:L:1:momenta:R:3 adsorbate_info="_JSON {\"site\": {\"coordinates\": [7.943086450650553, 4.817907091087848, 13.654156628912641], \"connectivity\": 2, \"topology\": [3, 74], \"n_vector\": [0.017968254091319302, 0.018043159463306976, 0.9996757405486499], \"h_vector\": [0.9999999999997767, -1.5757700605046773e-08, 6.680550015418132e-07], \"site_formula\": {\"O\": 2}}, \"smiles\": \"ClOC\", \"mdf\": 2.30393579525517, \"adsorbate_formula\": \"CH3O\"}" mace_E=-766.8325960979025 converged=T n_steps=131 d_min=2.4142766012350623 site_type=unknown dE_rel_meV=0 original_idx=304 rank=383 E_MACE=-763.0117918665428 pbc="T T T"
O        3.18284213       4.42205081      11.20827602  T       0.00000000       0.00000000       0.00000000
O        1.60062473       0.21601176      12.52614578  T       0.00000000       0.00000000       0.00000000
O        1.61047354       2.64829043      12.75941039  T       0.00000000       0.00000000       0.00000000
O        9.54598921       4.69251542      13.79581757  T       0.00000000       0.00000000       0.00000000
O        0.01109037       4.45901786      11.22372528  T       0.00000000       0.00000000       0.00000000
O        1.58861822      10.00826748       2.73351527  F       0.00000000       0.00000000       0.00000000
O        1.58861822      12.47529802       2.73351527  F       0.00000000       0.00000000       0.00000000
O        4.76584344       2.83874884       6.08591509  F       0.00000000       0.00000000       0.00000000
O        0.00000000       8.02984482       1.50000000  F       0.00000000       0.00000000       0.00000000
O        1.58861107       6.79705424       6.08592811  F       0.00000000       0.00000000       0.00000000
O        9.53692125       1.30713386       7.94439003  T       0.00000000       0.00000000       0.00000000
O        1.58861150       9.26263623       6.08591827  F       0.00000000       0.00000000       0.00000000
O        4.76583598       0.37317881       6.08593111  F       0.00000000       0.00000000       0.00000000
O        6.36985549      10.84466687      11.21033610  T       0.00000000       0.00000000       0.00000000
O        3.17723028       4.81790423       7.22598268  F       0.00000000       0.00000000       0.00000000
O        6.35447286       1.60596896       1.50000000  F       0.00000000       0.00000000       0.00000000
O        7.94309377       2.83875127       6.08591528  F       0.00000000       0.00000000       0.00000000
O        6.35447101       4.81790868       7.22598243  F       0.00000000       0.00000000       0.00000000
O        6.35447286       4.81790689       4.71193793  F       0.00000000       0.00000000       0.00000000
O        7.94850431       3.50089747       8.92197319  T       0.00000000       0.00000000       0.00000000
O        7.94951503       5.96169398       9.52859434  T       0.00000000       0.00000000       0.00000000
O        0.00000338      11.24178289       7.22597220  F       0.00000000       0.00000000       0.00000000
O        1.59431293       5.96266582       9.52257220  T       0.00000000       0.00000000       0.00000000
O        1.59201600       3.50099807       8.92117341  T       0.00000000       0.00000000       0.00000000
O        0.00000000       4.81790689       4.71193793  F       0.00000000       0.00000000       0.00000000
O        1.59536530      12.38354098       9.53125349  T       0.00000000       0.00000000       0.00000000
O        0.00888671       8.18092676      10.38781847  T       0.00000000       0.00000000       0.00000000
O        0.01346490      10.84148768      11.20557880  T       0.00000000       0.00000000       0.00000000
O        4.76585465       6.05142216       2.73351527  F       0.00000000       0.00000000       0.00000000
O        9.53554181       7.74114626       7.93859194  T       0.00000000       0.00000000       0.00000000
O        3.17723643       1.60596896       3.96703054  F       0.00000000       0.00000000       0.00000000
O        9.55127571      11.18695344      13.68308807  T       0.00000000       0.00000000       0.00000000
O        1.60539858       9.08762768      12.75975994  T       0.00000000       0.00000000       0.00000000
O        4.76585465       3.58439162       2.73351527  F       0.00000000       0.00000000       0.00000000
O        1.60037682       6.64844139      12.55659029  T       0.00000000       0.00000000       0.00000000
O        3.17723643       1.60596896       1.50000000  F       0.00000000       0.00000000       0.00000000
O        0.00000000       8.02984482       3.96703054  F       0.00000000       0.00000000       0.00000000
O        1.59794192       9.92581455       8.92343689  T       0.00000000       0.00000000       0.00000000
O        0.00000000      11.24178275       4.71193793  F       0.00000000       0.00000000       0.00000000
O        1.58861822       3.58439162       2.73351527  F       0.00000000       0.00000000       0.00000000
O        1.58861822       6.05142216       2.73351527  F       0.00000000       0.00000000       0.00000000
O        0.00000000       1.60596896       3.96703054  F       0.00000000       0.00000000       0.00000000
O        0.00000000       1.60596896       1.50000000  F       0.00000000       0.00000000       0.00000000
O        1.58861510       0.37317604       6.08592568  F       0.00000000       0.00000000       0.00000000
O        1.58861475       2.83876150       6.08591621  F       0.00000000       0.00000000       0.00000000
O        0.00000677       4.81790638       7.22598148  F       0.00000000       0.00000000       0.00000000
O        6.36179538       1.77146423      10.40000723  T       0.00000000       0.00000000       0.00000000
O        6.35888072       1.30811084       7.94409573  T       0.00000000       0.00000000       0.00000000
O        0.00360995       1.78498702      10.40029500  T       0.00000000       0.00000000       0.00000000
O        7.94552436       2.65099943      12.76282998  T       0.00000000       0.00000000       0.00000000
O        4.77912106       0.21673896      12.53653681  T       0.00000000       0.00000000       0.00000000
O        4.77871552       2.65309449      12.76840314  T       0.00000000       0.00000000       0.00000000
O        3.19231012       4.75559977      13.69084629  T       0.00000000       0.00000000       0.00000000
O        6.37367799      11.19035619      13.68679577  T       0.00000000       0.00000000       0.00000000
O        4.76585465      10.00826748       2.73351527  F       0.00000000       0.00000000       0.00000000
O        4.76585465      12.47529802       2.73351527  F       0.00000000       0.00000000       0.00000000
O        3.17723643       8.02984482       3.96703054  F       0.00000000       0.00000000       0.00000000
O        3.17723643       8.02984482       1.50000000  F       0.00000000       0.00000000       0.00000000
O        4.76583213       9.26262741       6.08592309  F       0.00000000       0.00000000       0.00000000
O        3.17722243      11.24178386       7.22601453  F       0.00000000       0.00000000       0.00000000
O        3.17723643      11.24178275       4.71193793  F       0.00000000       0.00000000       0.00000000
O        4.77289789       9.92626527       8.92976589  T       0.00000000       0.00000000       0.00000000
O        4.77359136      12.38753208       9.53854850  T       0.00000000       0.00000000       0.00000000
O        3.18225459       8.18079802      10.40647970  T       0.00000000       0.00000000       0.00000000
O        3.18441723       7.74672008       7.94570818  T       0.00000000       0.00000000       0.00000000
O        4.78014609       6.65229143      12.55111841  T       0.00000000       0.00000000       0.00000000
O        4.78188982       9.08503212      12.77749963  T       0.00000000       0.00000000       0.00000000
O        3.19231357      11.18339099      13.68291347  T       0.00000000       0.00000000       0.00000000
O        3.19503590      10.84396974      11.20710261  T       0.00000000       0.00000000       0.00000000
O        7.94309108       3.58439162       2.73351527  F       0.00000000       0.00000000       0.00000000
O        7.95660927       0.21662272      12.52775549  T       0.00000000       0.00000000       0.00000000
O        3.17974780       1.30796586       7.94321233  T       0.00000000       0.00000000       0.00000000
O        3.18492315       1.76558301      10.39986568  T       0.00000000       0.00000000       0.00000000
O        4.76583238       6.79706024       6.08593407  F       0.00000000       0.00000000       0.00000000
O        6.35916157       4.74190730      13.69803481  T       0.00000000       0.00000000       0.00000000
O        4.77010119       5.95981691       9.53197806  T       0.00000000       0.00000000       0.00000000
O        6.37027289       4.43289977      11.21103648  T       0.00000000       0.00000000       0.00000000
O        7.94309108      10.00826748       2.73351527  F       0.00000000       0.00000000       0.00000000
O        7.94309108      12.47529802       2.73351527  F       0.00000000       0.00000000       0.00000000
O        6.35447286       8.02984482       3.96703054  F       0.00000000       0.00000000       0.00000000
O        6.35447286       8.02984482       1.50000000  F       0.00000000       0.00000000       0.00000000
O        7.94309077       6.79706319       6.08592610  F       0.00000000       0.00000000       0.00000000
O        6.35446208      11.24178289       7.22597601  F       0.00000000       0.00000000       0.00000000
O        6.35447286      11.24178275       4.71193793  F       0.00000000       0.00000000       0.00000000
O        7.94845740       9.92725058       8.92564803  T       0.00000000       0.00000000       0.00000000
O        7.94309115       9.26262662       6.08591614  F       0.00000000       0.00000000       0.00000000
O        6.36372177       8.17392583      10.40647559  T       0.00000000       0.00000000       0.00000000
O        4.77102272       3.50285724       8.92270316  T       0.00000000       0.00000000       0.00000000
O        7.95082004      12.38662885       9.54078987  T       0.00000000       0.00000000       0.00000000
O        3.17723643       4.81790689       4.71193793  F       0.00000000       0.00000000       0.00000000
O        6.35447286       1.60596896       3.96703054  F       0.00000000       0.00000000       0.00000000
O        7.94309701       0.37317906       6.08592278  F       0.00000000       0.00000000       0.00000000
O        7.94309108       6.05142216       2.73351527  F       0.00000000       0.00000000       0.00000000
O        7.96186062       6.64884141      12.56995964  T       0.00000000       0.00000000       0.00000000
O        6.35799436       7.74088908       7.94371315  T       0.00000000       0.00000000       0.00000000
O        7.96126699       9.08754614      12.77546397  T       0.00000000       0.00000000       0.00000000
Pd       4.76586017      11.24177762       5.96678586  F       0.00000000       0.00000000       0.00000000
Pd       4.78340282      11.07067994      12.45817195  T       0.00000000       0.00000000       0.00000000
Pd       3.19377107       7.88527853      12.38090166  T       0.00000000       0.00000000       0.00000000
Pd       1.60571968      11.07183623      12.45133481  T       0.00000000       0.00000000       0.00000000
Pd       3.17725104       8.02984249       5.93124939  F       0.00000000       0.00000000       0.00000000
Pd       9.53167951       8.02984246       5.93125040  F       0.00000000       0.00000000       0.00000000
Pd       7.94309108       1.60596896       2.73351527  F       0.00000000       0.00000000       0.00000000
Pd       6.35447286       4.81790689       2.73351527  F       0.00000000       0.00000000       0.00000000
Pd       1.58862042      11.24178075       5.96678264  F       0.00000000       0.00000000       0.00000000
Pd       9.54750933       7.89777128      12.35804159  T       0.00000000       0.00000000       0.00000000
Pd       6.36463780       1.44418279      12.36621177  T       0.00000000       0.00000000       0.00000000
Pd       6.35446907       1.60596427       5.93125186  F       0.00000000       0.00000000       0.00000000
Pd       0.00000000      11.24178275       2.73351527  F       0.00000000       0.00000000       0.00000000
Pd       1.58861822       8.02984482       2.73351527  F       0.00000000       0.00000000       0.00000000
Pd       7.94903288       1.51421278       9.17021978  T       0.00000000       0.00000000       0.00000000
Pd       6.36267739       4.72633731       9.22787289  T       0.00000000       0.00000000       0.00000000
Pd       3.17723643      11.24178275       2.73351527  F       0.00000000       0.00000000       0.00000000
Pd       4.76585465       8.02984482       2.73351527  F       0.00000000       0.00000000       0.00000000
Pd       9.54410832       1.44088931      12.36086756  T       0.00000000       0.00000000       0.00000000
Pd       4.77267247       7.93924199       9.17495162  T       0.00000000       0.00000000       0.00000000
Pd       1.59583178       7.94005601       9.16599205  T       0.00000000       0.00000000       0.00000000
Pd       7.94307467       4.81790887       5.96677722  F       0.00000000       0.00000000       0.00000000
Pd       9.53841452      11.14731481       9.23585577  T       0.00000000       0.00000000       0.00000000
Pd       9.53710714       4.72344193       9.23873008  T       0.00000000       0.00000000       0.00000000
Pd       7.91810075       4.64427262      12.45322096  T       0.00000000       0.00000000       0.00000000
Pd       4.76585465       1.60596896       2.73351527  F       0.00000000       0.00000000       0.00000000
Pd       4.77445631       4.64991930      12.46841560  T       0.00000000       0.00000000       0.00000000
Pd       7.94307042      11.24177723       5.96677003  F       0.00000000       0.00000000       0.00000000
Pd       6.35446228       8.02984189       5.93125037  F       0.00000000       0.00000000       0.00000000
Pd       6.35447286      11.24178275       2.73351527  F       0.00000000       0.00000000       0.00000000
Pd       7.94309108       8.02984482       2.73351527  F       0.00000000       0.00000000       0.00000000
Pd       3.19265872       1.44311725      12.36666625  T       0.00000000       0.00000000       0.00000000
Pd       1.59271151       1.51384249       9.17127465  T       0.00000000       0.00000000       0.00000000
Pd       3.18602396      11.14902215       9.23696182  T       0.00000000       0.00000000       0.00000000
Pd       7.94804036       7.93895290       9.16690187  T       0.00000000       0.00000000       0.00000000
Pd       6.36151600      11.14982712       9.23888326  T       0.00000000       0.00000000       0.00000000
Pd       1.58861839       4.81790857       5.96677563  F       0.00000000       0.00000000       0.00000000
Pd       4.76586828       4.81790686       5.96677661  F       0.00000000       0.00000000       0.00000000
Pd       3.17982544       4.72536588       9.22789271  T       0.00000000       0.00000000       0.00000000
Pd       4.77161984       1.51486069       9.16855192  T       0.00000000       0.00000000       0.00000000
Pd       7.96014796      11.07204183      12.45687708  T       0.00000000       0.00000000       0.00000000
Pd       6.37125520       7.88597700      12.38843651  T       0.00000000       0.00000000       0.00000000
Pd       3.17725665       1.60596829       5.93125128  F       0.00000000       0.00000000       0.00000000
Pd       0.00000000       4.81790689       2.73351527  F       0.00000000       0.00000000       0.00000000
Pd       9.53168164       1.60596920       5.93125239  F       0.00000000       0.00000000       0.00000000
Pd       3.17723643       4.81790689       2.73351527  F       0.00000000       0.00000000       0.00000000
Pd       1.63769887       4.64143604      12.44838793  T       0.00000000       0.00000000       0.00000000
Pd       1.58861822       1.60596896       2.73351527  F       0.00000000       0.00000000       0.00000000
O        6.94943556       5.89787319      17.64815962  T       0.00000000       0.00000000       0.00000000
C        7.25359267       6.36513878      16.56187281  T       0.00000000       0.00000000       0.00000000
H        7.88143863       7.29472541      16.49021390  T       0.00000000       0.00000000       0.00000000
H        9.56005572       5.59320641      14.18329539  T       0.00000000       0.00000000       0.00000000
H        6.92325038       5.89879820      15.59937879  T       0.00000000       0.00000000       0.00000000
