149
Lattice="9.531709292017604 0.0 0.0 0.0 12.847751714415933 0.0 0.0 0.0 32.10284432209217" Properties=species:S:1:pos:R:3:move_mask:L:1:momenta:R:3 adsorbate_info="_JSON {\"site\": {\"coordinates\": [3.9715386916401836, 5.81938953670288, 13.154831173908345], \"connectivity\": 2, \"topology\": [52, 65], \"n_vector\": [0.03313169597415426, 0.41957782646205566, 0.9071145122106984], \"h_vector\": [-0.5788118287545699, -0.7297826368033469, 0.3638600966225132], \"site_formula\": {\"O\": 2}}, \"smiles\": \"ClOC\", \"mdf\": 2.1176058574058656, \"adsorbate_formula\": \"CH3O\"}" mace_E=-764.9199266622668 converged=T n_steps=77 d_min=1.9805682856513263 site_type=unknown dE_rel_meV=0 original_idx=144 rank=195 E_MACE=-764.9096916684289 pbc="T T T"
O        3.17073735       4.40414842      11.19054410  T       0.00000000       0.00000000       0.00000000
O        1.58372017       0.26904903      12.52427140  T       0.00000000       0.00000000       0.00000000
O        1.57927307       2.70661541      12.80360724  T       0.00000000       0.00000000       0.00000000
O        9.53388833       4.86312749      13.66551885  T       0.00000000       0.00000000       0.00000000
O       -0.00722730       4.41004800      11.19753787  T       0.00000000       0.00000000       0.00000000
O        1.58861822      10.00826748       2.73351527  F       0.00000000       0.00000000       0.00000000
O        1.58861822      12.47529802       2.73351527  F       0.00000000       0.00000000       0.00000000
O        4.76584344       2.83874884       6.08591509  F       0.00000000       0.00000000       0.00000000
O        0.00000000       8.02984482       1.50000000  F       0.00000000       0.00000000       0.00000000
O        1.58861107       6.79705424       6.08592811  F       0.00000000       0.00000000       0.00000000
O        9.53211713       1.32333575       7.94428549  T       0.00000000       0.00000000       0.00000000
O        1.58861150       9.26263623       6.08591827  F       0.00000000       0.00000000       0.00000000
O        4.76583598       0.37317881       6.08593111  F       0.00000000       0.00000000       0.00000000
O        6.35456685      10.88101936      11.20318098  T       0.00000000       0.00000000       0.00000000
O        3.17723028       4.81790423       7.22598268  F       0.00000000       0.00000000       0.00000000
O        6.35447286       1.60596896       1.50000000  F       0.00000000       0.00000000       0.00000000
O        7.94309377       2.83875127       6.08591528  F       0.00000000       0.00000000       0.00000000
O        6.35447101       4.81790868       7.22598243  F       0.00000000       0.00000000       0.00000000
O        6.35447286       4.81790689       4.71193793  F       0.00000000       0.00000000       0.00000000
O        7.94052990       3.51926342       8.92236485  T       0.00000000       0.00000000       0.00000000
O        7.94090964       5.98644604       9.52669785  T       0.00000000       0.00000000       0.00000000
O        0.00000338      11.24178289       7.22597220  F       0.00000000       0.00000000       0.00000000
O        1.58574934       5.97862670       9.47067129  T       0.00000000       0.00000000       0.00000000
O        1.58303431       3.51997761       8.91768480  T       0.00000000       0.00000000       0.00000000
O        0.00000000       4.81790689       4.71193793  F       0.00000000       0.00000000       0.00000000
O        1.58623603      12.41187538       9.52922850  T       0.00000000       0.00000000       0.00000000
O       -0.00576688       8.26760663      10.38226501  T       0.00000000       0.00000000       0.00000000
O       -0.00811872      10.88448964      11.20301157  T       0.00000000       0.00000000       0.00000000
O        4.76585465       6.05142216       2.73351527  F       0.00000000       0.00000000       0.00000000
O        9.54244705       7.75001547       7.94672117  T       0.00000000       0.00000000       0.00000000
O        3.17723643       1.60596896       3.96703054  F       0.00000000       0.00000000       0.00000000
O        9.52616544      11.25066697      13.67258367  T       0.00000000       0.00000000       0.00000000
O        1.55086035       9.11517153      12.77799703  T       0.00000000       0.00000000       0.00000000
O        4.76585465       3.58439162       2.73351527  F       0.00000000       0.00000000       0.00000000
O        1.58174535       6.67109197      12.09409583  T       0.00000000       0.00000000       0.00000000
O        3.17723643       1.60596896       1.50000000  F       0.00000000       0.00000000       0.00000000
O        0.00000000       8.02984482       3.96703054  F       0.00000000       0.00000000       0.00000000
O        1.59031682       9.95512835       8.93075283  T       0.00000000       0.00000000       0.00000000
O        0.00000000      11.24178275       4.71193793  F       0.00000000       0.00000000       0.00000000
O        1.58861822       3.58439162       2.73351527  F       0.00000000       0.00000000       0.00000000
O        1.58861822       6.05142216       2.73351527  F       0.00000000       0.00000000       0.00000000
O        0.00000000       1.60596896       3.96703054  F       0.00000000       0.00000000       0.00000000
O        0.00000000       1.60596896       1.50000000  F       0.00000000       0.00000000       0.00000000
O        1.58861510       0.37317604       6.08592568  F       0.00000000       0.00000000       0.00000000
O        1.58861475       2.83876150       6.08591621  F       0.00000000       0.00000000       0.00000000
O        0.00000677       4.81790638       7.22598148  F       0.00000000       0.00000000       0.00000000
O        6.35422719       1.78378711      10.40056032  T       0.00000000       0.00000000       0.00000000
O        6.35388849       1.32250958       7.94311974  T       0.00000000       0.00000000       0.00000000
O       -0.00307019       1.78739818      10.40306536  T       0.00000000       0.00000000       0.00000000
O        7.93698728       2.70373431      12.78719761  T       0.00000000       0.00000000       0.00000000
O        4.76142352       0.26766676      12.52433880  T       0.00000000       0.00000000       0.00000000
O        4.76382305       2.70422224      12.79314687  T       0.00000000       0.00000000       0.00000000
O        3.17514258       4.82560046      13.65998972  T       0.00000000       0.00000000       0.00000000
O        6.34814045      11.24193367      13.67428101  T       0.00000000       0.00000000       0.00000000
O        4.76585465      10.00826748       2.73351527  F       0.00000000       0.00000000       0.00000000
O        4.76585465      12.47529802       2.73351527  F       0.00000000       0.00000000       0.00000000
O        3.17723643       8.02984482       3.96703054  F       0.00000000       0.00000000       0.00000000
O        3.17723643       8.02984482       1.50000000  F       0.00000000       0.00000000       0.00000000
O        4.76583213       9.26262741       6.08592309  F       0.00000000       0.00000000       0.00000000
O        3.17722243      11.24178386       7.22601453  F       0.00000000       0.00000000       0.00000000
O        3.17723643      11.24178275       4.71193793  F       0.00000000       0.00000000       0.00000000
O        4.76034233       9.95466819       8.92814381  T       0.00000000       0.00000000       0.00000000
O        4.76458428      12.41200530       9.52935857  T       0.00000000       0.00000000       0.00000000
O        3.17648173       8.25884440      10.43973005  T       0.00000000       0.00000000       0.00000000
O        3.17685552       7.74214752       7.95572870  T       0.00000000       0.00000000       0.00000000
O        4.77087069       6.67940376      12.17645658  T       0.00000000       0.00000000       0.00000000
O        4.79524198       9.10920476      12.78710741  T       0.00000000       0.00000000       0.00000000
O        3.17440813      11.24844648      13.66808651  T       0.00000000       0.00000000       0.00000000
O        3.17357514      10.89885171      11.20167069  T       0.00000000       0.00000000       0.00000000
O        7.94309108       3.58439162       2.73351527  F       0.00000000       0.00000000       0.00000000
O        7.93812015       0.26727504      12.51894724  T       0.00000000       0.00000000       0.00000000
O        3.17515038       1.32346371       7.94572822  T       0.00000000       0.00000000       0.00000000
O        3.17576017       1.79198491      10.40091119  T       0.00000000       0.00000000       0.00000000
O        4.76583238       6.79706024       6.08593407  F       0.00000000       0.00000000       0.00000000
O        6.33992565       4.85220194      13.67126908  T       0.00000000       0.00000000       0.00000000
O        4.76328183       5.98037614       9.49152404  T       0.00000000       0.00000000       0.00000000
O        6.35465819       4.41832066      11.19624954  T       0.00000000       0.00000000       0.00000000
O        7.94309108      10.00826748       2.73351527  F       0.00000000       0.00000000       0.00000000
O        7.94309108      12.47529802       2.73351527  F       0.00000000       0.00000000       0.00000000
O        6.35447286       8.02984482       3.96703054  F       0.00000000       0.00000000       0.00000000
O        6.35447286       8.02984482       1.50000000  F       0.00000000       0.00000000       0.00000000
O        7.94309077       6.79706319       6.08592610  F       0.00000000       0.00000000       0.00000000
O        6.35446208      11.24178289       7.22597601  F       0.00000000       0.00000000       0.00000000
O        6.35447286      11.24178275       4.71193793  F       0.00000000       0.00000000       0.00000000
O        7.94130898       9.95746541       8.92305609  T       0.00000000       0.00000000       0.00000000
O        7.94309115       9.26262662       6.08591614  F       0.00000000       0.00000000       0.00000000
O        6.35479336       8.25800432      10.38327340  T       0.00000000       0.00000000       0.00000000
O        4.76795812       3.52099638       8.91989021  T       0.00000000       0.00000000       0.00000000
O        7.94149196      12.41200701       9.53090980  T       0.00000000       0.00000000       0.00000000
O        3.17723643       4.81790689       4.71193793  F       0.00000000       0.00000000       0.00000000
O        6.35447286       1.60596896       3.96703054  F       0.00000000       0.00000000       0.00000000
O        7.94309701       0.37317906       6.08592278  F       0.00000000       0.00000000       0.00000000
O        7.94309108       6.05142216       2.73351527  F       0.00000000       0.00000000       0.00000000
O        7.94444085       6.68372764      12.42607719  T       0.00000000       0.00000000       0.00000000
O        6.34096079       7.75273290       7.94602701  T       0.00000000       0.00000000       0.00000000
O        7.94187123       9.11228941      12.80312178  T       0.00000000       0.00000000       0.00000000
Pd       4.76586017      11.24177762       5.96678586  F       0.00000000       0.00000000       0.00000000
Pd       4.76256385      11.11233628      12.44789804  T       0.00000000       0.00000000       0.00000000
Pd       3.17370244       7.88735777      12.45777111  T       0.00000000       0.00000000       0.00000000
Pd       1.58241797      11.11141155      12.44819017  T       0.00000000       0.00000000       0.00000000
Pd       3.17725104       8.02984249       5.93124939  F       0.00000000       0.00000000       0.00000000
Pd       9.53167951       8.02984246       5.93125040  F       0.00000000       0.00000000       0.00000000
Pd       7.94309108       1.60596896       2.73351527  F       0.00000000       0.00000000       0.00000000
Pd       6.35447286       4.81790689       2.73351527  F       0.00000000       0.00000000       0.00000000
Pd       1.58862042      11.24178075       5.96678264  F       0.00000000       0.00000000       0.00000000
Pd       9.53126460       7.91402640      12.34401759  T       0.00000000       0.00000000       0.00000000
Pd       6.34982339       1.49902754      12.37284484  T       0.00000000       0.00000000       0.00000000
Pd       6.35446907       1.60596427       5.93125186  F       0.00000000       0.00000000       0.00000000
Pd       0.00000000      11.24178275       2.73351527  F       0.00000000       0.00000000       0.00000000
Pd       1.58861822       8.02984482       2.73351527  F       0.00000000       0.00000000       0.00000000
Pd       7.94236931       1.53617191       9.16988687  T       0.00000000       0.00000000       0.00000000
Pd       6.35508989       4.74570114       9.23299817  T       0.00000000       0.00000000       0.00000000
Pd       3.17723643      11.24178275       2.73351527  F       0.00000000       0.00000000       0.00000000
Pd       4.76585465       8.02984482       2.73351527  F       0.00000000       0.00000000       0.00000000
Pd       9.52675719       1.50052009      12.37637476  T       0.00000000       0.00000000       0.00000000
Pd       4.75438892       7.97133620       9.18873252  T       0.00000000       0.00000000       0.00000000
Pd       1.59808566       7.97162712       9.18849458  T       0.00000000       0.00000000       0.00000000
Pd       7.94307467       4.81790887       5.96677722  F       0.00000000       0.00000000       0.00000000
Pd       9.52998551      11.17788541       9.23561132  T       0.00000000       0.00000000       0.00000000
Pd       9.52550064       4.74368467       9.23333778  T       0.00000000       0.00000000       0.00000000
Pd       7.93848203       4.68946807      12.44656386  T       0.00000000       0.00000000       0.00000000
Pd       4.76585465       1.60596896       2.73351527  F       0.00000000       0.00000000       0.00000000
Pd       4.75940857       4.69402613      12.44317896  T       0.00000000       0.00000000       0.00000000
Pd       7.94307042      11.24177723       5.96677003  F       0.00000000       0.00000000       0.00000000
Pd       6.35446228       8.02984189       5.93125037  F       0.00000000       0.00000000       0.00000000
Pd       6.35447286      11.24178275       2.73351527  F       0.00000000       0.00000000       0.00000000
Pd       7.94309108       8.02984482       2.73351527  F       0.00000000       0.00000000       0.00000000
Pd       3.17076387       1.50346099      12.37626376  T       0.00000000       0.00000000       0.00000000
Pd       1.58647060       1.53955760       9.17222682  T       0.00000000       0.00000000       0.00000000
Pd       3.17542408      11.17846287       9.23392695  T       0.00000000       0.00000000       0.00000000
Pd       7.94110810       7.96798071       9.15865201  T       0.00000000       0.00000000       0.00000000
Pd       6.35251442      11.17700274       9.23517062  T       0.00000000       0.00000000       0.00000000
Pd       1.58861839       4.81790857       5.96677563  F       0.00000000       0.00000000       0.00000000
Pd       4.76586828       4.81790686       5.96677661  F       0.00000000       0.00000000       0.00000000
Pd       3.17585671       4.74226913       9.23200072  T       0.00000000       0.00000000       0.00000000
Pd       4.76522014       1.53875804       9.17014751  T       0.00000000       0.00000000       0.00000000
Pd       7.93850722      11.10926733      12.45480700  T       0.00000000       0.00000000       0.00000000
Pd       6.36354338       7.91571676      12.34800606  T       0.00000000       0.00000000       0.00000000
Pd       3.17725665       1.60596829       5.93125128  F       0.00000000       0.00000000       0.00000000
Pd       0.00000000       4.81790689       2.73351527  F       0.00000000       0.00000000       0.00000000
Pd       9.53168164       1.60596920       5.93125239  F       0.00000000       0.00000000       0.00000000
Pd       3.17723643       4.81790689       2.73351527  F       0.00000000       0.00000000       0.00000000
Pd       1.58422528       4.70373081      12.44739815  T       0.00000000       0.00000000       0.00000000
Pd       1.58861822       1.60596896       2.73351527  F       0.00000000       0.00000000       0.00000000
O        3.01270208       7.55939446      14.40451117  T       0.00000000       0.00000000       0.00000000
C        4.16138764       7.35891644      15.19685081  T       0.00000000       0.00000000       0.00000000
H        3.78238275       7.29236506      16.23476093  T       0.00000000       0.00000000       0.00000000
H        4.68445156       6.40959140      14.95028745  T       0.00000000       0.00000000       0.00000000
H        4.86953093       8.20757829      15.11485831  T       0.00000000       0.00000000       0.00000000
