149
Lattice="9.531709292017604 0.0 0.0 0.0 12.847751714415933 0.0 0.0 0.0 32.10284432209217" Properties=species:S:1:pos:R:3:move_mask:L:1:momenta:R:3 adsorbate_info="_JSON {\"site\": {\"coordinates\": [4.765848842561166, 4.817907075225271, 13.6541564222718], \"connectivity\": 2, \"topology\": [52, 74], \"n_vector\": [0.0011498693478748231, 0.022607889998412387, 0.9997437477225365], \"h_vector\": [0.9999999999998549, 2.5742935971409316e-08, -5.379820696326562e-07], \"site_formula\": {\"O\": 2}}, \"smiles\": \"ClOC\", \"mdf\": 2.126014504146296, \"adsorbate_formula\": \"CH3O\"}" mace_E=-766.8277730454823 converged=T n_steps=101 d_min=2.413911606792889 site_type=unknown dE_rel_meV=0 original_idx=177 rank=384 E_MACE=-763.0115957936328 pbc="T T T"
O        3.17399273       5.17996216      11.22860382  T       0.00000000       0.00000000       0.00000000
O        1.59188732       0.56998849      12.76990129  T       0.00000000       0.00000000       0.00000000
O        1.59582221       3.01441762      12.59969901  T       0.00000000       0.00000000       0.00000000
O        9.52304842       4.93432781      13.69959424  T       0.00000000       0.00000000       0.00000000
O        0.00104628       5.21663063      11.21454031  T       0.00000000       0.00000000       0.00000000
O        1.58861822      10.00826748       2.73351527  F       0.00000000       0.00000000       0.00000000
O        1.58861822      12.47529802       2.73351527  F       0.00000000       0.00000000       0.00000000
O        4.76584344       2.83874884       6.08591509  F       0.00000000       0.00000000       0.00000000
O        0.00000000       8.02984482       1.50000000  F       0.00000000       0.00000000       0.00000000
O        1.58861107       6.79705424       6.08592811  F       0.00000000       0.00000000       0.00000000
O        9.53001086       1.89500500       7.94625871  T       0.00000000       0.00000000       0.00000000
O        1.58861150       9.26263623       6.08591827  F       0.00000000       0.00000000       0.00000000
O        4.76583598       0.37317881       6.08593111  F       0.00000000       0.00000000       0.00000000
O        6.36075937      11.66019493      11.19534296  T       0.00000000       0.00000000       0.00000000
O        3.17723028       4.81790423       7.22598268  F       0.00000000       0.00000000       0.00000000
O        6.35447286       1.60596896       1.50000000  F       0.00000000       0.00000000       0.00000000
O        7.94309377       2.83875127       6.08591528  F       0.00000000       0.00000000       0.00000000
O        6.35447101       4.81790868       7.22598243  F       0.00000000       0.00000000       0.00000000
O        6.35447286       4.81790689       4.71193793  F       0.00000000       0.00000000       0.00000000
O        7.94056267       3.68264308       9.53813201  T       0.00000000       0.00000000       0.00000000
O        7.94179148       6.13674369       8.92668185  T       0.00000000       0.00000000       0.00000000
O        0.00000338      11.24178289       7.22597220  F       0.00000000       0.00000000       0.00000000
O        1.58874810       6.13568908       8.92212114  T       0.00000000       0.00000000       0.00000000
O        1.58657354       3.67718253       9.53704700  T       0.00000000       0.00000000       0.00000000
O        0.00000000       4.81790689       4.71193793  F       0.00000000       0.00000000       0.00000000
O        1.59019818      12.56373109       8.92449993  T       0.00000000       0.00000000       0.00000000
O        0.00081555       7.87923218      10.39952151  T       0.00000000       0.00000000       0.00000000
O        0.00531170      11.66045136      11.19828340  T       0.00000000       0.00000000       0.00000000
O        4.76585465       6.05142216       2.73351527  F       0.00000000       0.00000000       0.00000000
O        9.53271679       8.32252785       7.94480291  T       0.00000000       0.00000000       0.00000000
O        3.17723643       1.60596896       3.96703054  F       0.00000000       0.00000000       0.00000000
O        9.53427816      11.32376224      13.67381829  T       0.00000000       0.00000000       0.00000000
O        1.59065333       9.44197949      12.52686906  T       0.00000000       0.00000000       0.00000000
O        4.76585465       3.58439162       2.73351527  F       0.00000000       0.00000000       0.00000000
O        1.57719568       7.01117844      12.75279612  T       0.00000000       0.00000000       0.00000000
O        3.17723643       1.60596896       1.50000000  F       0.00000000       0.00000000       0.00000000
O        0.00000000       8.02984482       3.96703054  F       0.00000000       0.00000000       0.00000000
O        1.59253747      10.10298698       9.53348048  T       0.00000000       0.00000000       0.00000000
O        0.00000000      11.24178275       4.71193793  F       0.00000000       0.00000000       0.00000000
O        1.58861822       3.58439162       2.73351527  F       0.00000000       0.00000000       0.00000000
O        1.58861822       6.05142216       2.73351527  F       0.00000000       0.00000000       0.00000000
O        0.00000000       1.60596896       3.96703054  F       0.00000000       0.00000000       0.00000000
O        0.00000000       1.60596896       1.50000000  F       0.00000000       0.00000000       0.00000000
O        1.58861510       0.37317604       6.08592568  F       0.00000000       0.00000000       0.00000000
O        1.58861475       2.83876150       6.08591621  F       0.00000000       0.00000000       0.00000000
O        0.00000677       4.81790638       7.22598148  F       0.00000000       0.00000000       0.00000000
O        6.35465308       1.47486034      10.41327320  T       0.00000000       0.00000000       0.00000000
O        6.35778053       1.89512936       7.94571267  T       0.00000000       0.00000000       0.00000000
O        0.00295623       1.47524151      10.41448513  T       0.00000000       0.00000000       0.00000000
O        7.94407854       3.01542470      12.58021717  T       0.00000000       0.00000000       0.00000000
O        4.77104175       0.57177179      12.76293852  T       0.00000000       0.00000000       0.00000000
O        4.76627624       3.01439752      12.59406899  T       0.00000000       0.00000000       0.00000000
O        3.16892330       4.98228420      13.80461988  T       0.00000000       0.00000000       0.00000000
O        6.35952500      11.32680975      13.67064542  T       0.00000000       0.00000000       0.00000000
O        4.76585465      10.00826748       2.73351527  F       0.00000000       0.00000000       0.00000000
O        4.76585465      12.47529802       2.73351527  F       0.00000000       0.00000000       0.00000000
O        3.17723643       8.02984482       3.96703054  F       0.00000000       0.00000000       0.00000000
O        3.17723643       8.02984482       1.50000000  F       0.00000000       0.00000000       0.00000000
O        4.76583213       9.26262741       6.08592309  F       0.00000000       0.00000000       0.00000000
O        3.17722243      11.24178386       7.22601453  F       0.00000000       0.00000000       0.00000000
O        3.17723643      11.24178275       4.71193793  F       0.00000000       0.00000000       0.00000000
O        4.76771889      10.10316785       9.53236275  T       0.00000000       0.00000000       0.00000000
O        4.76935701      12.56443840       8.92167668  T       0.00000000       0.00000000       0.00000000
O        3.17530139       7.86241139      10.39909962  T       0.00000000       0.00000000       0.00000000
O        3.17744066       8.31908881       7.94394963  T       0.00000000       0.00000000       0.00000000
O        4.77405220       7.00958125      12.75381738  T       0.00000000       0.00000000       0.00000000
O        4.76807600       9.44221410      12.52505856  T       0.00000000       0.00000000       0.00000000
O        3.18448531      11.32972863      13.67384861  T       0.00000000       0.00000000       0.00000000
O        3.17970031      11.65756701      11.19869202  T       0.00000000       0.00000000       0.00000000
O        7.94309108       3.58439162       2.73351527  F       0.00000000       0.00000000       0.00000000
O        7.94786784       0.57602238      12.76972060  T       0.00000000       0.00000000       0.00000000
O        3.17738447       1.89824602       7.94329378  T       0.00000000       0.00000000       0.00000000
O        3.17784927       1.47266753      10.39842272  T       0.00000000       0.00000000       0.00000000
O        4.76583238       6.79706024       6.08593407  F       0.00000000       0.00000000       0.00000000
O        6.35486972       4.94832423      13.71315931  T       0.00000000       0.00000000       0.00000000
O        4.76191809       6.13763810       8.92303047  T       0.00000000       0.00000000       0.00000000
O        6.34882993       5.22261480      11.21611479  T       0.00000000       0.00000000       0.00000000
O        7.94309108      10.00826748       2.73351527  F       0.00000000       0.00000000       0.00000000
O        7.94309108      12.47529802       2.73351527  F       0.00000000       0.00000000       0.00000000
O        6.35447286       8.02984482       3.96703054  F       0.00000000       0.00000000       0.00000000
O        6.35447286       8.02984482       1.50000000  F       0.00000000       0.00000000       0.00000000
O        7.94309077       6.79706319       6.08592610  F       0.00000000       0.00000000       0.00000000
O        6.35446208      11.24178289       7.22597601  F       0.00000000       0.00000000       0.00000000
O        6.35447286      11.24178275       4.71193793  F       0.00000000       0.00000000       0.00000000
O        7.94563872      10.10368568       9.53054427  T       0.00000000       0.00000000       0.00000000
O        7.94309115       9.26262662       6.08591614  F       0.00000000       0.00000000       0.00000000
O        6.35647797       7.87726662      10.40080463  T       0.00000000       0.00000000       0.00000000
O        4.76502894       3.67802117       9.53703409  T       0.00000000       0.00000000       0.00000000
O        7.94636422      12.56440222       8.92194871  T       0.00000000       0.00000000       0.00000000
O        3.17723643       4.81790689       4.71193793  F       0.00000000       0.00000000       0.00000000
O        6.35447286       1.60596896       3.96703054  F       0.00000000       0.00000000       0.00000000
O        7.94309701       0.37317906       6.08592278  F       0.00000000       0.00000000       0.00000000
O        7.94309108       6.05142216       2.73351527  F       0.00000000       0.00000000       0.00000000
O        7.94429917       7.01240757      12.76921731  T       0.00000000       0.00000000       0.00000000
O        6.35387515       8.31890368       7.94405307  T       0.00000000       0.00000000       0.00000000
O        7.94461465       9.44367138      12.52319962  T       0.00000000       0.00000000       0.00000000
Pd       4.76586017      11.24177762       5.96678586  F       0.00000000       0.00000000       0.00000000
Pd       4.77194919      11.43564738      12.44281328  T       0.00000000       0.00000000       0.00000000
Pd       3.17789402       8.21782774      12.35552010  T       0.00000000       0.00000000       0.00000000
Pd       1.59250020      11.43513305      12.44706757  T       0.00000000       0.00000000       0.00000000
Pd       3.17725104       8.02984249       5.93124939  F       0.00000000       0.00000000       0.00000000
Pd       9.53167951       8.02984246       5.93125040  F       0.00000000       0.00000000       0.00000000
Pd       7.94309108       1.60596896       2.73351527  F       0.00000000       0.00000000       0.00000000
Pd       6.35447286       4.81790689       2.73351527  F       0.00000000       0.00000000       0.00000000
Pd       1.58862042      11.24178075       5.96678264  F       0.00000000       0.00000000       0.00000000
Pd       9.52972278       8.21761569      12.36274712  T       0.00000000       0.00000000       0.00000000
Pd       6.35876646       1.77917397      12.39235251  T       0.00000000       0.00000000       0.00000000
Pd       6.35446907       1.60596427       5.93125186  F       0.00000000       0.00000000       0.00000000
Pd       0.00000000      11.24178275       2.73351527  F       0.00000000       0.00000000       0.00000000
Pd       1.58861822       8.02984482       2.73351527  F       0.00000000       0.00000000       0.00000000
Pd       7.94409009       1.70327440       9.17806015  T       0.00000000       0.00000000       0.00000000
Pd       6.35020949       4.91485992       9.23266214  T       0.00000000       0.00000000       0.00000000
Pd       3.17723643      11.24178275       2.73351527  F       0.00000000       0.00000000       0.00000000
Pd       4.76585465       8.02984482       2.73351527  F       0.00000000       0.00000000       0.00000000
Pd       9.53577015       1.78006100      12.39401739  T       0.00000000       0.00000000       0.00000000
Pd       4.76497190       8.12430865       9.17100982  T       0.00000000       0.00000000       0.00000000
Pd       1.58950400       8.12364107       9.16966581  T       0.00000000       0.00000000       0.00000000
Pd       7.94307467       4.81790887       5.96677722  F       0.00000000       0.00000000       0.00000000
Pd       9.53465165      11.34065067       9.23275222  T       0.00000000       0.00000000       0.00000000
Pd       9.53248797       4.91325784       9.23241653  T       0.00000000       0.00000000       0.00000000
Pd       7.94113592       5.01610989      12.47810198  T       0.00000000       0.00000000       0.00000000
Pd       4.76585465       1.60596896       2.73351527  F       0.00000000       0.00000000       0.00000000
Pd       4.80000585       5.01701072      12.46095250  T       0.00000000       0.00000000       0.00000000
Pd       7.94307042      11.24177723       5.96677003  F       0.00000000       0.00000000       0.00000000
Pd       6.35446228       8.02984189       5.93125037  F       0.00000000       0.00000000       0.00000000
Pd       6.35447286      11.24178275       2.73351527  F       0.00000000       0.00000000       0.00000000
Pd       7.94309108       8.02984482       2.73351527  F       0.00000000       0.00000000       0.00000000
Pd       3.18144545       1.76491869      12.37189626  T       0.00000000       0.00000000       0.00000000
Pd       1.58770503       1.70230268       9.17174553  T       0.00000000       0.00000000       0.00000000
Pd       3.17993754      11.34177199       9.23281014  T       0.00000000       0.00000000       0.00000000
Pd       7.94359365       8.12529825       9.16900980  T       0.00000000       0.00000000       0.00000000
Pd       6.35750042      11.34095470       9.23132412  T       0.00000000       0.00000000       0.00000000
Pd       1.58861839       4.81790857       5.96677563  F       0.00000000       0.00000000       0.00000000
Pd       4.76586828       4.81790686       5.96677661  F       0.00000000       0.00000000       0.00000000
Pd       3.17532213       4.91305262       9.24115143  T       0.00000000       0.00000000       0.00000000
Pd       4.76805272       1.70256838       9.17150364  T       0.00000000       0.00000000       0.00000000
Pd       7.94832003      11.43966420      12.44324836  T       0.00000000       0.00000000       0.00000000
Pd       6.35841363       8.21607787      12.36328927  T       0.00000000       0.00000000       0.00000000
Pd       3.17725665       1.60596829       5.93125128  F       0.00000000       0.00000000       0.00000000
Pd       0.00000000       4.81790689       2.73351527  F       0.00000000       0.00000000       0.00000000
Pd       9.53168164       1.60596920       5.93125239  F       0.00000000       0.00000000       0.00000000
Pd       3.17723643       4.81790689       2.73351527  F       0.00000000       0.00000000       0.00000000
Pd       1.54894689       5.02035606      12.45710910  T       0.00000000       0.00000000       0.00000000
Pd       1.58861822       1.60596896       2.73351527  F       0.00000000       0.00000000       0.00000000
O        5.83676910       2.63075143      17.33080167  T       0.00000000       0.00000000       0.00000000
C        5.19558774       3.25863907      16.50367531  T       0.00000000       0.00000000       0.00000000
H        4.07396583       3.17322041      16.45899706  T       0.00000000       0.00000000       0.00000000
H        5.67167022       3.94797648      15.76132274  T       0.00000000       0.00000000       0.00000000
H        3.15092882       4.07990774      14.18810879  T       0.00000000       0.00000000       0.00000000
