149
Lattice="9.531709292017604 0.0 0.0 0.0 12.847751714415933 0.0 0.0 0.0 32.10284432209217" Properties=species:S:1:pos:R:3:move_mask:L:1:momenta:R:3 adsorbate_info="_JSON {\"site\": {\"coordinates\": [3.971538472376496, 2.210453961985636, 12.501135294945257], \"connectivity\": 2, \"topology\": [51, 127], \"n_vector\": [0.012412197264452612, -0.11194707824163556, 0.9936366483942858], \"h_vector\": [0.7864206680784499, 0.5984837738624391, 0.15283882112348693], \"site_formula\": {\"O\": 1, \"Pd\": 1}}, \"smiles\": \"ClOC\", \"mdf\": 1.891125166769572, \"adsorbate_formula\": \"CH3O\"}" mace_E=-767.2038148034192 converged=T n_steps=117 d_min=0.9766440175623655 site_type=atop dE_rel_meV=0 original_idx=140 rank=0 E_MACE=-768.7757095426097 pbc="T T T"
O        3.16822647       5.25768474      11.18603740  T       0.00000000       0.00000000       0.00000000
O        1.52228297       0.57241800      12.76140338  T       0.00000000       0.00000000       0.00000000
O        1.54734576       3.01156760      12.22033990  T       0.00000000       0.00000000       0.00000000
O        9.53390442       4.84434518      13.67190155  T       0.00000000       0.00000000       0.00000000
O       -0.02855942       5.25344412      11.18783919  T       0.00000000       0.00000000       0.00000000
O        1.58861822      10.00826748       2.73351527  F       0.00000000       0.00000000       0.00000000
O        1.58861822      12.47529802       2.73351527  F       0.00000000       0.00000000       0.00000000
O        4.76584344       2.83874884       6.08591509  F       0.00000000       0.00000000       0.00000000
O        0.00000000       8.02984482       1.50000000  F       0.00000000       0.00000000       0.00000000
O        1.58861107       6.79705424       6.08592811  F       0.00000000       0.00000000       0.00000000
O        9.53508149       1.88040706       7.94825495  T       0.00000000       0.00000000       0.00000000
O        1.58861150       9.26263623       6.08591827  F       0.00000000       0.00000000       0.00000000
O        4.76583598       0.37317881       6.08593111  F       0.00000000       0.00000000       0.00000000
O        6.34035835      11.62901990      11.21152437  T       0.00000000       0.00000000       0.00000000
O        3.17723028       4.81790423       7.22598268  F       0.00000000       0.00000000       0.00000000
O        6.35447286       1.60596896       1.50000000  F       0.00000000       0.00000000       0.00000000
O        7.94309377       2.83875127       6.08591528  F       0.00000000       0.00000000       0.00000000
O        6.35447101       4.81790868       7.22598243  F       0.00000000       0.00000000       0.00000000
O        6.35447286       4.81790689       4.71193793  F       0.00000000       0.00000000       0.00000000
O        7.93465534       3.66406191       9.52776792  T       0.00000000       0.00000000       0.00000000
O        7.93378564       6.13140647       8.91623270  T       0.00000000       0.00000000       0.00000000
O        0.00000338      11.24178289       7.22597220  F       0.00000000       0.00000000       0.00000000
O        1.57884576       6.13355522       8.91840465  T       0.00000000       0.00000000       0.00000000
O        1.57916647       3.67537064       9.49106932  T       0.00000000       0.00000000       0.00000000
O        0.00000000       4.81790689       4.71193793  F       0.00000000       0.00000000       0.00000000
O        1.58530968      12.54847065       8.94485166  T       0.00000000       0.00000000       0.00000000
O       -0.00842756       7.87811156      10.40508079  T       0.00000000       0.00000000       0.00000000
O       -0.01456305      11.62014560      11.20894473  T       0.00000000       0.00000000       0.00000000
O        4.76585465       6.05142216       2.73351527  F       0.00000000       0.00000000       0.00000000
O        9.52528155       8.31903281       7.94331484  T       0.00000000       0.00000000       0.00000000
O        3.17723643       1.60596896       3.96703054  F       0.00000000       0.00000000       0.00000000
O        9.51150770      11.32057586      13.69552492  T       0.00000000       0.00000000       0.00000000
O        1.57334488       9.42478241      12.55756005  T       0.00000000       0.00000000       0.00000000
O        4.76585465       3.58439162       2.73351527  F       0.00000000       0.00000000       0.00000000
O        1.57255266       6.98631966      12.77713854  T       0.00000000       0.00000000       0.00000000
O        3.17723643       1.60596896       1.50000000  F       0.00000000       0.00000000       0.00000000
O        0.00000000       8.02984482       3.96703054  F       0.00000000       0.00000000       0.00000000
O        1.58063837      10.08902756       9.53489845  T       0.00000000       0.00000000       0.00000000
O        0.00000000      11.24178275       4.71193793  F       0.00000000       0.00000000       0.00000000
O        1.58861822       3.58439162       2.73351527  F       0.00000000       0.00000000       0.00000000
O        1.58861822       6.05142216       2.73351527  F       0.00000000       0.00000000       0.00000000
O        0.00000000       1.60596896       3.96703054  F       0.00000000       0.00000000       0.00000000
O        0.00000000       1.60596896       1.50000000  F       0.00000000       0.00000000       0.00000000
O        1.58861510       0.37317604       6.08592568  F       0.00000000       0.00000000       0.00000000
O        1.58861475       2.83876150       6.08591621  F       0.00000000       0.00000000       0.00000000
O        0.00000677       4.81790638       7.22598148  F       0.00000000       0.00000000       0.00000000
O        6.34742242       1.42087656      10.39850110  T       0.00000000       0.00000000       0.00000000
O        6.33930109       1.88024086       7.95039982  T       0.00000000       0.00000000       0.00000000
O       -0.01486537       1.41105053      10.38650408  T       0.00000000       0.00000000       0.00000000
O        7.92233332       3.00918550      12.48857320  T       0.00000000       0.00000000       0.00000000
O        4.77540122       0.56868925      12.77764968  T       0.00000000       0.00000000       0.00000000
O        4.76386831       3.00983752      12.37336084  T       0.00000000       0.00000000       0.00000000
O        3.14005741       4.88562245      13.66350116  T       0.00000000       0.00000000       0.00000000
O        6.34610227      11.31139123      13.69238168  T       0.00000000       0.00000000       0.00000000
O        4.76585465      10.00826748       2.73351527  F       0.00000000       0.00000000       0.00000000
O        4.76585465      12.47529802       2.73351527  F       0.00000000       0.00000000       0.00000000
O        3.17723643       8.02984482       3.96703054  F       0.00000000       0.00000000       0.00000000
O        3.17723643       8.02984482       1.50000000  F       0.00000000       0.00000000       0.00000000
O        4.76583213       9.26262741       6.08592309  F       0.00000000       0.00000000       0.00000000
O        3.17722243      11.24178386       7.22601453  F       0.00000000       0.00000000       0.00000000
O        3.17723643      11.24178275       4.71193793  F       0.00000000       0.00000000       0.00000000
O        4.76102680      10.08931865       9.53141070  T       0.00000000       0.00000000       0.00000000
O        4.75726425      12.54991638       8.93892044  T       0.00000000       0.00000000       0.00000000
O        3.17231343       7.87821160      10.39708719  T       0.00000000       0.00000000       0.00000000
O        3.17247948       8.31980955       7.94095052  T       0.00000000       0.00000000       0.00000000
O        4.75378904       6.98503990      12.77646796  T       0.00000000       0.00000000       0.00000000
O        4.75623080       9.42240589      12.55135052  T       0.00000000       0.00000000       0.00000000
O        3.15945574      11.32355295      13.79472502  T       0.00000000       0.00000000       0.00000000
O        3.16210030      11.58722135      11.22890404  T       0.00000000       0.00000000       0.00000000
O        7.94309108       3.58439162       2.73351527  F       0.00000000       0.00000000       0.00000000
O        7.92395629       0.57167897      12.79690395  T       0.00000000       0.00000000       0.00000000
O        3.17335372       1.88516153       7.95874022  T       0.00000000       0.00000000       0.00000000
O        3.17277627       1.43407875      10.45673350  T       0.00000000       0.00000000       0.00000000
O        4.76583238       6.79706024       6.08593407  F       0.00000000       0.00000000       0.00000000
O        6.33451767       4.87511992      13.67534921  T       0.00000000       0.00000000       0.00000000
O        4.76314148       6.13274584       8.91562539  T       0.00000000       0.00000000       0.00000000
O        6.34437340       5.25061059      11.20164254  T       0.00000000       0.00000000       0.00000000
O        7.94309108      10.00826748       2.73351527  F       0.00000000       0.00000000       0.00000000
O        7.94309108      12.47529802       2.73351527  F       0.00000000       0.00000000       0.00000000
O        6.35447286       8.02984482       3.96703054  F       0.00000000       0.00000000       0.00000000
O        6.35447286       8.02984482       1.50000000  F       0.00000000       0.00000000       0.00000000
O        7.94309077       6.79706319       6.08592610  F       0.00000000       0.00000000       0.00000000
O        6.35446208      11.24178289       7.22597601  F       0.00000000       0.00000000       0.00000000
O        6.35447286      11.24178275       4.71193793  F       0.00000000       0.00000000       0.00000000
O        7.93530902      10.09359592       9.53084491  T       0.00000000       0.00000000       0.00000000
O        7.94309115       9.26262662       6.08591614  F       0.00000000       0.00000000       0.00000000
O        6.34923147       7.87372288      10.40474828  T       0.00000000       0.00000000       0.00000000
O        4.75901445       3.67225822       9.51997240  T       0.00000000       0.00000000       0.00000000
O        7.93382532      12.54601260       8.92210101  T       0.00000000       0.00000000       0.00000000
O        3.17723643       4.81790689       4.71193793  F       0.00000000       0.00000000       0.00000000
O        6.35447286       1.60596896       3.96703054  F       0.00000000       0.00000000       0.00000000
O        7.94309701       0.37317906       6.08592278  F       0.00000000       0.00000000       0.00000000
O        7.94309108       6.05142216       2.73351527  F       0.00000000       0.00000000       0.00000000
O        7.93408775       6.98613496      12.77883057  T       0.00000000       0.00000000       0.00000000
O        6.35265263       8.32114332       7.94175156  T       0.00000000       0.00000000       0.00000000
O        7.93040988       9.41820937      12.54222961  T       0.00000000       0.00000000       0.00000000
Pd       4.76586017      11.24177762       5.96678586  F       0.00000000       0.00000000       0.00000000
Pd       4.78908160      11.42317382      12.45219296  T       0.00000000       0.00000000       0.00000000
Pd       3.16464663       8.18627437      12.36798723  T       0.00000000       0.00000000       0.00000000
Pd       1.53222604      11.42312458      12.44947443  T       0.00000000       0.00000000       0.00000000
Pd       3.17725104       8.02984249       5.93124939  F       0.00000000       0.00000000       0.00000000
Pd       9.53167951       8.02984246       5.93125040  F       0.00000000       0.00000000       0.00000000
Pd       7.94309108       1.60596896       2.73351527  F       0.00000000       0.00000000       0.00000000
Pd       6.35447286       4.81790689       2.73351527  F       0.00000000       0.00000000       0.00000000
Pd       1.58862042      11.24178075       5.96678264  F       0.00000000       0.00000000       0.00000000
Pd       9.51888407       8.18990168      12.37679568  T       0.00000000       0.00000000       0.00000000
Pd       6.34432694       1.77282241      12.35893567  T       0.00000000       0.00000000       0.00000000
Pd       6.35446907       1.60596427       5.93125186  F       0.00000000       0.00000000       0.00000000
Pd       0.00000000      11.24178275       2.73351527  F       0.00000000       0.00000000       0.00000000
Pd       1.58861822       8.02984482       2.73351527  F       0.00000000       0.00000000       0.00000000
Pd       7.93429250       1.68562206       9.16404357  T       0.00000000       0.00000000       0.00000000
Pd       6.34874285       4.90810270       9.23472181  T       0.00000000       0.00000000       0.00000000
Pd       3.17723643      11.24178275       2.73351527  F       0.00000000       0.00000000       0.00000000
Pd       4.76585465       8.02984482       2.73351527  F       0.00000000       0.00000000       0.00000000
Pd       9.48977622       1.77555284      12.34280258  T       0.00000000       0.00000000       0.00000000
Pd       4.76260003       8.11569153       9.16649354  T       0.00000000       0.00000000       0.00000000
Pd       1.58133143       8.11598002       9.16843032  T       0.00000000       0.00000000       0.00000000
Pd       7.94307467       4.81790887       5.96677722  F       0.00000000       0.00000000       0.00000000
Pd       9.52620547      11.32489856       9.22958993  T       0.00000000       0.00000000       0.00000000
Pd       9.51914334       4.90929140       9.22715217  T       0.00000000       0.00000000       0.00000000
Pd       7.92557619       5.00354481      12.45088007  T       0.00000000       0.00000000       0.00000000
Pd       4.76585465       1.60596896       2.73351527  F       0.00000000       0.00000000       0.00000000
Pd       4.74840335       5.00017605      12.44548498  T       0.00000000       0.00000000       0.00000000
Pd       7.94307042      11.24177723       5.96677003  F       0.00000000       0.00000000       0.00000000
Pd       6.35446228       8.02984189       5.93125037  F       0.00000000       0.00000000       0.00000000
Pd       6.35447286      11.24178275       2.73351527  F       0.00000000       0.00000000       0.00000000
Pd       7.94309108       8.02984482       2.73351527  F       0.00000000       0.00000000       0.00000000
Pd       3.14832264       1.78349925      12.40368779  T       0.00000000       0.00000000       0.00000000
Pd       1.58609846       1.68798229       9.18731172  T       0.00000000       0.00000000       0.00000000
Pd       3.17053683      11.32489607       9.24422489  T       0.00000000       0.00000000       0.00000000
Pd       7.93662929       8.11622922       9.17150817  T       0.00000000       0.00000000       0.00000000
Pd       6.34600366      11.32621149       9.23219615  T       0.00000000       0.00000000       0.00000000
Pd       1.58861839       4.81790857       5.96677563  F       0.00000000       0.00000000       0.00000000
Pd       4.76586828       4.81790686       5.96677661  F       0.00000000       0.00000000       0.00000000
Pd       3.17174843       4.91290917       9.22896716  T       0.00000000       0.00000000       0.00000000
Pd       4.75657361       1.68789757       9.18912835  T       0.00000000       0.00000000       0.00000000
Pd       7.92759248      11.42158428      12.47134664  T       0.00000000       0.00000000       0.00000000
Pd       6.34172905       8.18650044      12.37824990  T       0.00000000       0.00000000       0.00000000
Pd       3.17725665       1.60596829       5.93125128  F       0.00000000       0.00000000       0.00000000
Pd       0.00000000       4.81790689       2.73351527  F       0.00000000       0.00000000       0.00000000
Pd       9.53168164       1.60596920       5.93125239  F       0.00000000       0.00000000       0.00000000
Pd       3.17723643       4.81790689       2.73351527  F       0.00000000       0.00000000       0.00000000
Pd       1.56769957       5.00608331      12.42424897  T       0.00000000       0.00000000       0.00000000
Pd       1.58861822       1.60596896       2.73351527  F       0.00000000       0.00000000       0.00000000
O        3.08095745       1.91660875      14.59094284  T       0.00000000       0.00000000       0.00000000
C        2.23054850       2.63662537      15.14107542  T       0.00000000       0.00000000       0.00000000
H        2.21951054       2.66825613      16.25013723  T       0.00000000       0.00000000       0.00000000
H        1.49193330       3.23265149      14.57771997  T       0.00000000       0.00000000       0.00000000
H        3.17358688      -0.65459694      14.25039667  T       0.00000000       0.00000000       0.00000000
