149
Lattice="9.531709292017604 0.0 0.0 0.0 12.847751714415933 0.0 0.0 0.0 32.10284432209217" Properties=species:S:1:pos:R:3:move_mask:L:1:momenta:R:3 adsorbate_info="_JSON {\"site\": {\"coordinates\": [7.4135477889562535, 8.029833597383368, 12.552577002485664], \"connectivity\": 3, \"topology\": [93, 95, 137], \"n_vector\": [-0.028868574906757687, -0.0024226844643062883, 0.9995802799089423], \"h_vector\": [-7.14646749465348e-06, -0.9999999999737748, 1.1741399871076448e-06], \"site_formula\": {\"O\": 2, \"Pd\": 1}}, \"smiles\": \"ClOC\", \"mdf\": 1.876533507730509, \"adsorbate_formula\": \"CH3O\"}" mace_E=-764.8942531666657 converged=T n_steps=82 d_min=2.4069428301139966 site_type=unknown dE_rel_meV=0 original_idx=289 rank=386 E_MACE=-763.0109166003657 pbc="T T T"
O        3.17881288       4.46361957      11.20034776  T       0.00000000       0.00000000       0.00000000
O        1.58499166       0.31099822      12.56115732  T       0.00000000       0.00000000       0.00000000
O        1.58657817       2.75201277      12.80678715  T       0.00000000       0.00000000       0.00000000
O        9.52691509       4.88839198      13.65865160  T       0.00000000       0.00000000       0.00000000
O        0.00140410       4.45419751      11.19127069  T       0.00000000       0.00000000       0.00000000
O        1.58861822      10.00826748       2.73351527  F       0.00000000       0.00000000       0.00000000
O        1.58861822      12.47529802       2.73351527  F       0.00000000       0.00000000       0.00000000
O        4.76584344       2.83874884       6.08591509  F       0.00000000       0.00000000       0.00000000
O        0.00000000       8.02984482       1.50000000  F       0.00000000       0.00000000       0.00000000
O        1.58861107       6.79705424       6.08592811  F       0.00000000       0.00000000       0.00000000
O        9.52857790       1.35114389       7.95107072  T       0.00000000       0.00000000       0.00000000
O        1.58861150       9.26263623       6.08591827  F       0.00000000       0.00000000       0.00000000
O        4.76583598       0.37317881       6.08593111  F       0.00000000       0.00000000       0.00000000
O        6.34766509      10.92692498      11.21294268  T       0.00000000       0.00000000       0.00000000
O        3.17723028       4.81790423       7.22598268  F       0.00000000       0.00000000       0.00000000
O        6.35447286       1.60596896       1.50000000  F       0.00000000       0.00000000       0.00000000
O        7.94309377       2.83875127       6.08591528  F       0.00000000       0.00000000       0.00000000
O        6.35447101       4.81790868       7.22598243  F       0.00000000       0.00000000       0.00000000
O        6.35447286       4.81790689       4.71193793  F       0.00000000       0.00000000       0.00000000
O        7.94153164       3.55827846       8.92944831  T       0.00000000       0.00000000       0.00000000
O        7.94464212       6.02169526       9.48659172  T       0.00000000       0.00000000       0.00000000
O        0.00000338      11.24178289       7.22597220  F       0.00000000       0.00000000       0.00000000
O        1.58682893       6.02187949       9.47107163  T       0.00000000       0.00000000       0.00000000
O        1.58922456       3.55903067       8.92615398  T       0.00000000       0.00000000       0.00000000
O        0.00000000       4.81790689       4.71193793  F       0.00000000       0.00000000       0.00000000
O        1.58872500      12.45173489       9.53904561  T       0.00000000       0.00000000       0.00000000
O        0.00252868       8.28886975      10.43537855  T       0.00000000       0.00000000       0.00000000
O       -0.00050503      10.94030705      11.21211364  T       0.00000000       0.00000000       0.00000000
O        4.76585465       6.05142216       2.73351527  F       0.00000000       0.00000000       0.00000000
O        9.53176818       7.77170872       7.95603086  T       0.00000000       0.00000000       0.00000000
O        3.17723643       1.60596896       3.96703054  F       0.00000000       0.00000000       0.00000000
O        9.52753407      11.28746238      13.68166559  T       0.00000000       0.00000000       0.00000000
O        1.62097011       9.16173216      12.77989520  T       0.00000000       0.00000000       0.00000000
O        4.76585465       3.58439162       2.73351527  F       0.00000000       0.00000000       0.00000000
O        1.59356278       6.71950726      12.11476608  T       0.00000000       0.00000000       0.00000000
O        3.17723643       1.60596896       1.50000000  F       0.00000000       0.00000000       0.00000000
O        0.00000000       8.02984482       3.96703054  F       0.00000000       0.00000000       0.00000000
O        1.58478175       9.99616063       8.94611458  T       0.00000000       0.00000000       0.00000000
O        0.00000000      11.24178275       4.71193793  F       0.00000000       0.00000000       0.00000000
O        1.58861822       3.58439162       2.73351527  F       0.00000000       0.00000000       0.00000000
O        1.58861822       6.05142216       2.73351527  F       0.00000000       0.00000000       0.00000000
O        0.00000000       1.60596896       3.96703054  F       0.00000000       0.00000000       0.00000000
O        0.00000000       1.60596896       1.50000000  F       0.00000000       0.00000000       0.00000000
O        1.58861510       0.37317604       6.08592568  F       0.00000000       0.00000000       0.00000000
O        1.58861475       2.83876150       6.08591621  F       0.00000000       0.00000000       0.00000000
O        0.00000677       4.81790638       7.22598148  F       0.00000000       0.00000000       0.00000000
O        6.35383907       1.83001493      10.41145337  T       0.00000000       0.00000000       0.00000000
O        6.35414488       1.35074149       7.95158691  T       0.00000000       0.00000000       0.00000000
O       -0.00319228       1.82712641      10.41277437  T       0.00000000       0.00000000       0.00000000
O        7.94098806       2.74914004      12.79796024  T       0.00000000       0.00000000       0.00000000
O        4.76219092       0.30775367      12.55309675  T       0.00000000       0.00000000       0.00000000
O        4.76317171       2.74691541      12.79249348  T       0.00000000       0.00000000       0.00000000
O        3.17293859       4.90073744      13.66810102  T       0.00000000       0.00000000       0.00000000
O        6.35706720      11.27452666      13.68805602  T       0.00000000       0.00000000       0.00000000
O        4.76585465      10.00826748       2.73351527  F       0.00000000       0.00000000       0.00000000
O        4.76585465      12.47529802       2.73351527  F       0.00000000       0.00000000       0.00000000
O        3.17723643       8.02984482       3.96703054  F       0.00000000       0.00000000       0.00000000
O        3.17723643       8.02984482       1.50000000  F       0.00000000       0.00000000       0.00000000
O        4.76583213       9.26262741       6.08592309  F       0.00000000       0.00000000       0.00000000
O        3.17722243      11.24178386       7.22601453  F       0.00000000       0.00000000       0.00000000
O        3.17723643      11.24178275       4.71193793  F       0.00000000       0.00000000       0.00000000
O        4.76412027       9.99397305       8.92456661  T       0.00000000       0.00000000       0.00000000
O        4.76342064      12.44988864       9.54126548  T       0.00000000       0.00000000       0.00000000
O        3.17731406       8.30046923      10.39036847  T       0.00000000       0.00000000       0.00000000
O        3.16682768       7.78211028       7.95100271  T       0.00000000       0.00000000       0.00000000
O        4.76341071       6.72557750      12.45218399  T       0.00000000       0.00000000       0.00000000
O        4.76789753       9.15299045      12.81623210  T       0.00000000       0.00000000       0.00000000
O        3.17336976      11.28627453      13.69085032  T       0.00000000       0.00000000       0.00000000
O        3.17962787      10.92568589      11.21540552  T       0.00000000       0.00000000       0.00000000
O        7.94309108       3.58439162       2.73351527  F       0.00000000       0.00000000       0.00000000
O        7.94006617       0.31053991      12.55779824  T       0.00000000       0.00000000       0.00000000
O        3.17518372       1.34883694       7.95303379  T       0.00000000       0.00000000       0.00000000
O        3.17320791       1.82631663      10.41386371  T       0.00000000       0.00000000       0.00000000
O        4.76583238       6.79706024       6.08593407  F       0.00000000       0.00000000       0.00000000
O        6.36343676       4.89561998      13.67237467  T       0.00000000       0.00000000       0.00000000
O        4.76440697       6.02945131       9.51855261  T       0.00000000       0.00000000       0.00000000
O        6.34821043       4.46393811      11.19530288  T       0.00000000       0.00000000       0.00000000
O        7.94309108      10.00826748       2.73351527  F       0.00000000       0.00000000       0.00000000
O        7.94309108      12.47529802       2.73351527  F       0.00000000       0.00000000       0.00000000
O        6.35447286       8.02984482       3.96703054  F       0.00000000       0.00000000       0.00000000
O        6.35447286       8.02984482       1.50000000  F       0.00000000       0.00000000       0.00000000
O        7.94309077       6.79706319       6.08592610  F       0.00000000       0.00000000       0.00000000
O        6.35446208      11.24178289       7.22597601  F       0.00000000       0.00000000       0.00000000
O        6.35447286      11.24178275       4.71193793  F       0.00000000       0.00000000       0.00000000
O        7.94555055       9.99633438       8.93798993  T       0.00000000       0.00000000       0.00000000
O        7.94309115       9.26262662       6.08591614  F       0.00000000       0.00000000       0.00000000
O        6.35169396       8.29149988      10.38231234  T       0.00000000       0.00000000       0.00000000
O        4.76321220       3.56116172       8.92940254  T       0.00000000       0.00000000       0.00000000
O        7.94067127      12.45122532       9.54579585  T       0.00000000       0.00000000       0.00000000
O        3.17723643       4.81790689       4.71193793  F       0.00000000       0.00000000       0.00000000
O        6.35447286       1.60596896       3.96703054  F       0.00000000       0.00000000       0.00000000
O        7.94309701       0.37317906       6.08592278  F       0.00000000       0.00000000       0.00000000
O        7.94309108       6.05142216       2.73351527  F       0.00000000       0.00000000       0.00000000
O        7.93377454       6.72673941      12.18791857  T       0.00000000       0.00000000       0.00000000
O        6.36532390       7.78373856       7.94787952  T       0.00000000       0.00000000       0.00000000
O        7.91207449       9.15629790      12.75693507  T       0.00000000       0.00000000       0.00000000
Pd       4.76586017      11.24177762       5.96678586  F       0.00000000       0.00000000       0.00000000
Pd       4.76302721      11.15062429      12.46800698  T       0.00000000       0.00000000       0.00000000
Pd       3.17856774       7.95662882      12.35428434  T       0.00000000       0.00000000       0.00000000
Pd       1.58845719      11.15655474      12.46025429  T       0.00000000       0.00000000       0.00000000
Pd       3.17725104       8.02984249       5.93124939  F       0.00000000       0.00000000       0.00000000
Pd       9.53167951       8.02984246       5.93125040  F       0.00000000       0.00000000       0.00000000
Pd       7.94309108       1.60596896       2.73351527  F       0.00000000       0.00000000       0.00000000
Pd       6.35447286       4.81790689       2.73351527  F       0.00000000       0.00000000       0.00000000
Pd       1.58862042      11.24178075       5.96678264  F       0.00000000       0.00000000       0.00000000
Pd       9.53343434       7.93933883      12.45507457  T       0.00000000       0.00000000       0.00000000
Pd       6.35195642       1.54038693      12.38993220  T       0.00000000       0.00000000       0.00000000
Pd       6.35446907       1.60596427       5.93125186  F       0.00000000       0.00000000       0.00000000
Pd       0.00000000      11.24178275       2.73351527  F       0.00000000       0.00000000       0.00000000
Pd       1.58861822       8.02984482       2.73351527  F       0.00000000       0.00000000       0.00000000
Pd       7.94093758       1.57443706       9.17830562  T       0.00000000       0.00000000       0.00000000
Pd       6.35138042       4.78508952       9.23185870  T       0.00000000       0.00000000       0.00000000
Pd       3.17723643      11.24178275       2.73351527  F       0.00000000       0.00000000       0.00000000
Pd       4.76585465       8.02984482       2.73351527  F       0.00000000       0.00000000       0.00000000
Pd       9.52915114       1.54443715      12.39335836  T       0.00000000       0.00000000       0.00000000
Pd       4.76464288       8.00718878       9.15985912  T       0.00000000       0.00000000       0.00000000
Pd       1.57930479       8.01054329       9.18738946  T       0.00000000       0.00000000       0.00000000
Pd       7.94307467       4.81790887       5.96677722  F       0.00000000       0.00000000       0.00000000
Pd       9.53024770      11.22055425       9.24066417  T       0.00000000       0.00000000       0.00000000
Pd       9.53085688       4.78188874       9.23144705  T       0.00000000       0.00000000       0.00000000
Pd       7.94323403       4.74055614      12.43953383  T       0.00000000       0.00000000       0.00000000
Pd       4.76585465       1.60596896       2.73351527  F       0.00000000       0.00000000       0.00000000
Pd       4.76548365       4.72974461      12.44561495  T       0.00000000       0.00000000       0.00000000
Pd       7.94307042      11.24177723       5.96677003  F       0.00000000       0.00000000       0.00000000
Pd       6.35446228       8.02984189       5.93125037  F       0.00000000       0.00000000       0.00000000
Pd       6.35447286      11.24178275       2.73351527  F       0.00000000       0.00000000       0.00000000
Pd       7.94309108       8.02984482       2.73351527  F       0.00000000       0.00000000       0.00000000
Pd       3.17211961       1.54290018      12.38976366  T       0.00000000       0.00000000       0.00000000
Pd       1.58589470       1.57631914       9.17783595  T       0.00000000       0.00000000       0.00000000
Pd       3.17674034      11.21589414       9.24158434  T       0.00000000       0.00000000       0.00000000
Pd       7.95385116       8.01027836       9.18488412  T       0.00000000       0.00000000       0.00000000
Pd       6.35217097      11.21618924       9.24043590  T       0.00000000       0.00000000       0.00000000
Pd       1.58861839       4.81790857       5.96677563  F       0.00000000       0.00000000       0.00000000
Pd       4.76586828       4.81790686       5.96677661  F       0.00000000       0.00000000       0.00000000
Pd       3.17815570       4.78603230       9.23379020  T       0.00000000       0.00000000       0.00000000
Pd       4.76395779       1.57533618       9.17860338  T       0.00000000       0.00000000       0.00000000
Pd       7.94094180      11.15806543      12.45482641  T       0.00000000       0.00000000       0.00000000
Pd       6.34115926       7.95737766      12.34587254  T       0.00000000       0.00000000       0.00000000
Pd       3.17725665       1.60596829       5.93125128  F       0.00000000       0.00000000       0.00000000
Pd       0.00000000       4.81790689       2.73351527  F       0.00000000       0.00000000       0.00000000
Pd       9.53168164       1.60596920       5.93125239  F       0.00000000       0.00000000       0.00000000
Pd       3.17723643       4.81790689       2.73351527  F       0.00000000       0.00000000       0.00000000
Pd       1.58721970       4.74871646      12.44856567  T       0.00000000       0.00000000       0.00000000
Pd       1.58861822       1.60596896       2.73351527  F       0.00000000       0.00000000       0.00000000
O        9.67375179       7.70075931      14.41474864  T       0.00000000       0.00000000       0.00000000
C        8.50437060       7.54948526      15.18475214  T       0.00000000       0.00000000       0.00000000
H        8.83515425       7.65095760      16.23622536  T       0.00000000       0.00000000       0.00000000
H        7.75001474       8.33325566      14.96094509  T       0.00000000       0.00000000       0.00000000
H        8.04831328       6.54743542      15.03797156  T       0.00000000       0.00000000       0.00000000
