149
Lattice="9.531709292017604 0.0 0.0 0.0 12.847751714415933 0.0 0.0 0.0 32.10284432209217" Properties=species:S:1:pos:R:3:move_mask:L:1:momenta:R:3 adsorbate_info="_JSON {\"site\": {\"coordinates\": [1.5886158391563339, 5.485559663475217, 13.321270748807288], \"connectivity\": 3, \"topology\": [3, 34, 52], \"n_vector\": [-0.00723489177525423, 0.3863232642785816, 0.9223350756737714], \"h_vector\": [0.5788133912978539, 0.7297799295852636, -0.36386304075682785], \"site_formula\": {\"O\": 3}}, \"smiles\": \"ClOC\", \"mdf\": 2.1472161208245204, \"adsorbate_formula\": \"CH3O\"}" mace_E=-766.8354844759317 converged=T n_steps=104 d_min=1.9787946605144786 site_type=unknown dE_rel_meV=0 original_idx=54 rank=194 E_MACE=-764.9102493714272 pbc="T T T"
O        3.16769407       4.44049361      11.21332704  T       0.00000000       0.00000000       0.00000000
O        1.58092962       0.21639113      12.52983397  T       0.00000000       0.00000000       0.00000000
O        1.59253590       2.64773601      12.74645900  T       0.00000000       0.00000000       0.00000000
O        9.52499936       4.66357031      13.80373265  T       0.00000000       0.00000000       0.00000000
O       -0.00696318       4.47337633      11.22910519  T       0.00000000       0.00000000       0.00000000
O        1.58861822      10.00826748       2.73351527  F       0.00000000       0.00000000       0.00000000
O        1.58861822      12.47529802       2.73351527  F       0.00000000       0.00000000       0.00000000
O        4.76584344       2.83874884       6.08591509  F       0.00000000       0.00000000       0.00000000
O        0.00000000       8.02984482       1.50000000  F       0.00000000       0.00000000       0.00000000
O        1.58861107       6.79705424       6.08592811  F       0.00000000       0.00000000       0.00000000
O        9.53077239       1.31644075       7.94403628  T       0.00000000       0.00000000       0.00000000
O        1.58861150       9.26263623       6.08591827  F       0.00000000       0.00000000       0.00000000
O        4.76583598       0.37317881       6.08593111  F       0.00000000       0.00000000       0.00000000
O        6.34523614      10.85041249      11.20368601  T       0.00000000       0.00000000       0.00000000
O        3.17723028       4.81790423       7.22598268  F       0.00000000       0.00000000       0.00000000
O        6.35447286       1.60596896       1.50000000  F       0.00000000       0.00000000       0.00000000
O        7.94309377       2.83875127       6.08591528  F       0.00000000       0.00000000       0.00000000
O        6.35447101       4.81790868       7.22598243  F       0.00000000       0.00000000       0.00000000
O        6.35447286       4.81790689       4.71193793  F       0.00000000       0.00000000       0.00000000
O        7.94326301       3.51285955       8.92126825  T       0.00000000       0.00000000       0.00000000
O        7.93943124       5.97369654       9.53792452  T       0.00000000       0.00000000       0.00000000
O        0.00000338      11.24178289       7.22597220  F       0.00000000       0.00000000       0.00000000
O        1.58504843       5.97373673       9.53919823  T       0.00000000       0.00000000       0.00000000
O        1.58463448       3.51410089       8.92440517  T       0.00000000       0.00000000       0.00000000
O        0.00000000       4.81790689       4.71193793  F       0.00000000       0.00000000       0.00000000
O        1.58504135      12.39846976       9.53907867  T       0.00000000       0.00000000       0.00000000
O       -0.00375699       8.18950758      10.39987912  T       0.00000000       0.00000000       0.00000000
O       -0.00622441      10.84678514      11.20502886  T       0.00000000       0.00000000       0.00000000
O        4.76585465       6.05142216       2.73351527  F       0.00000000       0.00000000       0.00000000
O        9.52835376       7.74377369       7.94534377  T       0.00000000       0.00000000       0.00000000
O        3.17723643       1.60596896       3.96703054  F       0.00000000       0.00000000       0.00000000
O        9.52110414      11.17998533      13.68121247  T       0.00000000       0.00000000       0.00000000
O        1.58255084       9.08480142      12.77782804  T       0.00000000       0.00000000       0.00000000
O        4.76585465       3.58439162       2.73351527  F       0.00000000       0.00000000       0.00000000
O        1.58071515       6.64735809      12.58533576  T       0.00000000       0.00000000       0.00000000
O        3.17723643       1.60596896       1.50000000  F       0.00000000       0.00000000       0.00000000
O        0.00000000       8.02984482       3.96703054  F       0.00000000       0.00000000       0.00000000
O        1.58625322       9.93560367       8.92552163  T       0.00000000       0.00000000       0.00000000
O        0.00000000      11.24178275       4.71193793  F       0.00000000       0.00000000       0.00000000
O        1.58861822       3.58439162       2.73351527  F       0.00000000       0.00000000       0.00000000
O        1.58861822       6.05142216       2.73351527  F       0.00000000       0.00000000       0.00000000
O        0.00000000       1.60596896       3.96703054  F       0.00000000       0.00000000       0.00000000
O        0.00000000       1.60596896       1.50000000  F       0.00000000       0.00000000       0.00000000
O        1.58861510       0.37317604       6.08592568  F       0.00000000       0.00000000       0.00000000
O        1.58861475       2.83876150       6.08591621  F       0.00000000       0.00000000       0.00000000
O        0.00000677       4.81790638       7.22598148  F       0.00000000       0.00000000       0.00000000
O        6.35009589       1.77890700      10.39602875  T       0.00000000       0.00000000       0.00000000
O        6.35261169       1.31854132       7.94393218  T       0.00000000       0.00000000       0.00000000
O       -0.00297149       1.79530892      10.39449540  T       0.00000000       0.00000000       0.00000000
O        7.92562411       2.64480927      12.74869503  T       0.00000000       0.00000000       0.00000000
O        4.75995410       0.21420443      12.52819862  T       0.00000000       0.00000000       0.00000000
O        4.75914020       2.64603551      12.76122325  T       0.00000000       0.00000000       0.00000000
O        3.17572792       4.73086350      13.70134194  T       0.00000000       0.00000000       0.00000000
O        6.34817742      11.18461858      13.68083814  T       0.00000000       0.00000000       0.00000000
O        4.76585465      10.00826748       2.73351527  F       0.00000000       0.00000000       0.00000000
O        4.76585465      12.47529802       2.73351527  F       0.00000000       0.00000000       0.00000000
O        3.17723643       8.02984482       3.96703054  F       0.00000000       0.00000000       0.00000000
O        3.17723643       8.02984482       1.50000000  F       0.00000000       0.00000000       0.00000000
O        4.76583213       9.26262741       6.08592309  F       0.00000000       0.00000000       0.00000000
O        3.17722243      11.24178386       7.22601453  F       0.00000000       0.00000000       0.00000000
O        3.17723643      11.24178275       4.71193793  F       0.00000000       0.00000000       0.00000000
O        4.76193582       9.93610711       8.92900657  T       0.00000000       0.00000000       0.00000000
O        4.76153766      12.39829415       9.53626616  T       0.00000000       0.00000000       0.00000000
O        3.17120023       8.18593177      10.41128631  T       0.00000000       0.00000000       0.00000000
O        3.17626993       7.74683683       7.94857224  T       0.00000000       0.00000000       0.00000000
O        4.75592434       6.64634156      12.56035396  T       0.00000000       0.00000000       0.00000000
O        4.75553928       9.08225300      12.77714267  T       0.00000000       0.00000000       0.00000000
O        3.16999189      11.19295467      13.68115507  T       0.00000000       0.00000000       0.00000000
O        3.17070871      10.85216570      11.20643435  T       0.00000000       0.00000000       0.00000000
O        7.94309108       3.58439162       2.73351527  F       0.00000000       0.00000000       0.00000000
O        7.93603555       0.21475739      12.52550068  T       0.00000000       0.00000000       0.00000000
O        3.17406028       1.31483246       7.94425840  T       0.00000000       0.00000000       0.00000000
O        3.17524905       1.78277210      10.39505555  T       0.00000000       0.00000000       0.00000000
O        4.76583238       6.79706024       6.08593407  F       0.00000000       0.00000000       0.00000000
O        6.34421497       4.72873021      13.69434104  T       0.00000000       0.00000000       0.00000000
O        4.76461948       5.97058943       9.53942414  T       0.00000000       0.00000000       0.00000000
O        6.35376148       4.42691277      11.21059170  T       0.00000000       0.00000000       0.00000000
O        7.94309108      10.00826748       2.73351527  F       0.00000000       0.00000000       0.00000000
O        7.94309108      12.47529802       2.73351527  F       0.00000000       0.00000000       0.00000000
O        6.35447286       8.02984482       3.96703054  F       0.00000000       0.00000000       0.00000000
O        6.35447286       8.02984482       1.50000000  F       0.00000000       0.00000000       0.00000000
O        7.94309077       6.79706319       6.08592610  F       0.00000000       0.00000000       0.00000000
O        6.35446208      11.24178289       7.22597601  F       0.00000000       0.00000000       0.00000000
O        6.35447286      11.24178275       4.71193793  F       0.00000000       0.00000000       0.00000000
O        7.93920641       9.93544541       8.92472080  T       0.00000000       0.00000000       0.00000000
O        7.94309115       9.26262662       6.08591614  F       0.00000000       0.00000000       0.00000000
O        6.35204938       8.19206155      10.41590897  T       0.00000000       0.00000000       0.00000000
O        4.76306825       3.51432578       8.92654648  T       0.00000000       0.00000000       0.00000000
O        7.94048802      12.39697449       9.53381188  T       0.00000000       0.00000000       0.00000000
O        3.17723643       4.81790689       4.71193793  F       0.00000000       0.00000000       0.00000000
O        6.35447286       1.60596896       3.96703054  F       0.00000000       0.00000000       0.00000000
O        7.94309701       0.37317906       6.08592278  F       0.00000000       0.00000000       0.00000000
O        7.94309108       6.05142216       2.73351527  F       0.00000000       0.00000000       0.00000000
O        7.93860654       6.64365496      12.58003988  T       0.00000000       0.00000000       0.00000000
O        6.35068104       7.75081915       7.95035716  T       0.00000000       0.00000000       0.00000000
O        7.93370129       9.08499866      12.77353832  T       0.00000000       0.00000000       0.00000000
Pd       4.76586017      11.24177762       5.96678586  F       0.00000000       0.00000000       0.00000000
Pd       4.75860967      11.06899436      12.45451948  T       0.00000000       0.00000000       0.00000000
Pd       3.17079344       7.88291621      12.38817334  T       0.00000000       0.00000000       0.00000000
Pd       1.58104514      11.07170421      12.45528080  T       0.00000000       0.00000000       0.00000000
Pd       3.17725104       8.02984249       5.93124939  F       0.00000000       0.00000000       0.00000000
Pd       9.53167951       8.02984246       5.93125040  F       0.00000000       0.00000000       0.00000000
Pd       7.94309108       1.60596896       2.73351527  F       0.00000000       0.00000000       0.00000000
Pd       6.35447286       4.81790689       2.73351527  F       0.00000000       0.00000000       0.00000000
Pd       1.58862042      11.24178075       5.96678264  F       0.00000000       0.00000000       0.00000000
Pd       9.52449535       7.89284707      12.37498236  T       0.00000000       0.00000000       0.00000000
Pd       6.34443358       1.43958854      12.35948592  T       0.00000000       0.00000000       0.00000000
Pd       6.35446907       1.60596427       5.93125186  F       0.00000000       0.00000000       0.00000000
Pd       0.00000000      11.24178275       2.73351527  F       0.00000000       0.00000000       0.00000000
Pd       1.58861822       8.02984482       2.73351527  F       0.00000000       0.00000000       0.00000000
Pd       7.94158646       1.52496859       9.16793171  T       0.00000000       0.00000000       0.00000000
Pd       6.35463910       4.73705948       9.23131622  T       0.00000000       0.00000000       0.00000000
Pd       3.17723643      11.24178275       2.73351527  F       0.00000000       0.00000000       0.00000000
Pd       4.76585465       8.02984482       2.73351527  F       0.00000000       0.00000000       0.00000000
Pd       9.52447914       1.43905853      12.35325771  T       0.00000000       0.00000000       0.00000000
Pd       4.76294132       7.94810996       9.18037832  T       0.00000000       0.00000000       0.00000000
Pd       1.58577739       7.94742950       9.17337604  T       0.00000000       0.00000000       0.00000000
Pd       7.94307467       4.81790887       5.96677722  F       0.00000000       0.00000000       0.00000000
Pd       9.52906792      11.15834984       9.23728320  T       0.00000000       0.00000000       0.00000000
Pd       9.52811178       4.73676389       9.24217688  T       0.00000000       0.00000000       0.00000000
Pd       7.90026879       4.63642804      12.45450269  T       0.00000000       0.00000000       0.00000000
Pd       4.76585465       1.60596896       2.73351527  F       0.00000000       0.00000000       0.00000000
Pd       4.76089519       4.64393818      12.47083582  T       0.00000000       0.00000000       0.00000000
Pd       7.94307042      11.24177723       5.96677003  F       0.00000000       0.00000000       0.00000000
Pd       6.35446228       8.02984189       5.93125037  F       0.00000000       0.00000000       0.00000000
Pd       6.35447286      11.24178275       2.73351527  F       0.00000000       0.00000000       0.00000000
Pd       7.94309108       8.02984482       2.73351527  F       0.00000000       0.00000000       0.00000000
Pd       3.17329355       1.43992072      12.35762179  T       0.00000000       0.00000000       0.00000000
Pd       1.58578846       1.52579346       9.16904531  T       0.00000000       0.00000000       0.00000000
Pd       3.17357516      11.15981046       9.23769677  T       0.00000000       0.00000000       0.00000000
Pd       7.93899919       7.94874329       9.17557631  T       0.00000000       0.00000000       0.00000000
Pd       6.35043114      11.16006207       9.23623678  T       0.00000000       0.00000000       0.00000000
Pd       1.58861839       4.81790857       5.96677563  F       0.00000000       0.00000000       0.00000000
Pd       4.76586828       4.81790686       5.96677661  F       0.00000000       0.00000000       0.00000000
Pd       3.17158788       4.73836245       9.23190905  T       0.00000000       0.00000000       0.00000000
Pd       4.76276403       1.52470988       9.16696717  T       0.00000000       0.00000000       0.00000000
Pd       7.93363786      11.06837684      12.45033877  T       0.00000000       0.00000000       0.00000000
Pd       6.34379599       7.87898921      12.39313661  T       0.00000000       0.00000000       0.00000000
Pd       3.17725665       1.60596829       5.93125128  F       0.00000000       0.00000000       0.00000000
Pd       0.00000000       4.81790689       2.73351527  F       0.00000000       0.00000000       0.00000000
Pd       9.53168164       1.60596920       5.93125239  F       0.00000000       0.00000000       0.00000000
Pd       3.17723643       4.81790689       2.73351527  F       0.00000000       0.00000000       0.00000000
Pd       1.62043694       4.64245103      12.45742533  T       0.00000000       0.00000000       0.00000000
Pd       1.58861822       1.60596896       2.73351527  F       0.00000000       0.00000000       0.00000000
O        3.32473717       7.69058642      16.75078348  T       0.00000000       0.00000000       0.00000000
C        2.51729449       7.10639973      16.04951287  T       0.00000000       0.00000000       0.00000000
H        2.20790917       6.04771323      16.24788193  T       0.00000000       0.00000000       0.00000000
H        2.04389915       7.59591459      15.15863879  T       0.00000000       0.00000000       0.00000000
H       -0.02122186       5.55482201      14.21253777  T       0.00000000       0.00000000       0.00000000
