149
Lattice="9.531709292017604 0.0 0.0 0.0 12.847751714415933 0.0 0.0 0.0 32.10284432209217" Properties=species:S:1:pos:R:3:move_mask:L:1:momenta:R:3 adsorbate_info="_JSON {\"site\": {\"coordinates\": [0.7942999110704411, 10.240301755588547, 13.154826361498204], \"connectivity\": 2, \"topology\": [31, 32], \"n_vector\": [0.020947966352258797, -0.4219042178639178, 0.906398374697539], \"h_vector\": [-0.5788181190617425, 0.7297815202016441, 0.36385232968610204], \"site_formula\": {\"O\": 2}}, \"smiles\": \"ClOC\", \"mdf\": 1.977422496739793, \"adsorbate_formula\": \"CH3O\"}" mace_E=-766.8086434382556 converged=T n_steps=89 d_min=0.9834774525025696 site_type=unknown dE_rel_meV=0 original_idx=29 rank=1 E_MACE=-767.2587936427659 pbc="T T T"
O        3.18547653       5.17260178      11.20245049  T       0.00000000       0.00000000       0.00000000
O        1.58694822       0.51171725      12.75249593  T       0.00000000       0.00000000       0.00000000
O        1.59773693       2.94127775      12.51743078  T       0.00000000       0.00000000       0.00000000
O        9.53923719       4.80886554      13.67140293  T       0.00000000       0.00000000       0.00000000
O        0.00750118       5.17059682      11.20153368  T       0.00000000       0.00000000       0.00000000
O        1.58861822      10.00826748       2.73351527  F       0.00000000       0.00000000       0.00000000
O        1.58861822      12.47529802       2.73351527  F       0.00000000       0.00000000       0.00000000
O        4.76584344       2.83874884       6.08591509  F       0.00000000       0.00000000       0.00000000
O        0.00000000       8.02984482       1.50000000  F       0.00000000       0.00000000       0.00000000
O        1.58861107       6.79705424       6.08592811  F       0.00000000       0.00000000       0.00000000
O        9.53380600       1.87521444       7.94419847  T       0.00000000       0.00000000       0.00000000
O        1.58861150       9.26263623       6.08591827  F       0.00000000       0.00000000       0.00000000
O        4.76583598       0.37317881       6.08593111  F       0.00000000       0.00000000       0.00000000
O        6.35787318      11.58228362      11.21919154  T       0.00000000       0.00000000       0.00000000
O        3.17723028       4.81790423       7.22598268  F       0.00000000       0.00000000       0.00000000
O        6.35447286       1.60596896       1.50000000  F       0.00000000       0.00000000       0.00000000
O        7.94309377       2.83875127       6.08591528  F       0.00000000       0.00000000       0.00000000
O        6.35447101       4.81790868       7.22598243  F       0.00000000       0.00000000       0.00000000
O        6.35447286       4.81790689       4.71193793  F       0.00000000       0.00000000       0.00000000
O        7.94946699       3.63610867       9.52650704  T       0.00000000       0.00000000       0.00000000
O        7.94783909       6.09985862       8.92907618  T       0.00000000       0.00000000       0.00000000
O        0.00000338      11.24178289       7.22597220  F       0.00000000       0.00000000       0.00000000
O        1.59282978       6.09916940       8.92502187  T       0.00000000       0.00000000       0.00000000
O        1.59441777       3.63446325       9.53033963  T       0.00000000       0.00000000       0.00000000
O        0.00000000       4.81790689       4.71193793  F       0.00000000       0.00000000       0.00000000
O        1.59152511      12.51775999       8.93180932  T       0.00000000       0.00000000       0.00000000
O        0.00450254       7.84179893      10.41294490  T       0.00000000       0.00000000       0.00000000
O        0.01076334      11.57860834      11.22212324  T       0.00000000       0.00000000       0.00000000
O        4.76585465       6.05142216       2.73351527  F       0.00000000       0.00000000       0.00000000
O        9.53275541       8.29953304       7.94870166  T       0.00000000       0.00000000       0.00000000
O        3.17723643       1.60596896       3.96703054  F       0.00000000       0.00000000       0.00000000
O        9.53211380      11.27134073      13.70610481  T       0.00000000       0.00000000       0.00000000
O        1.59742161       9.35915519      12.59523744  T       0.00000000       0.00000000       0.00000000
O        4.76585465       3.58439162       2.73351527  F       0.00000000       0.00000000       0.00000000
O        1.59183463       6.91960364      12.77750131  T       0.00000000       0.00000000       0.00000000
O        3.17723643       1.60596896       1.50000000  F       0.00000000       0.00000000       0.00000000
O        0.00000000       8.02984482       3.96703054  F       0.00000000       0.00000000       0.00000000
O        1.59261305      10.05823939       9.54408998  T       0.00000000       0.00000000       0.00000000
O        0.00000000      11.24178275       4.71193793  F       0.00000000       0.00000000       0.00000000
O        1.58861822       3.58439162       2.73351527  F       0.00000000       0.00000000       0.00000000
O        1.58861822       6.05142216       2.73351527  F       0.00000000       0.00000000       0.00000000
O        0.00000000       1.60596896       3.96703054  F       0.00000000       0.00000000       0.00000000
O        0.00000000       1.60596896       1.50000000  F       0.00000000       0.00000000       0.00000000
O        1.58861510       0.37317604       6.08592568  F       0.00000000       0.00000000       0.00000000
O        1.58861475       2.83876150       6.08591621  F       0.00000000       0.00000000       0.00000000
O        0.00000677       4.81790638       7.22598148  F       0.00000000       0.00000000       0.00000000
O        6.36081222       1.39450436      10.39706275  T       0.00000000       0.00000000       0.00000000
O        6.35822729       1.87579606       7.94443495  T       0.00000000       0.00000000       0.00000000
O        0.00250793       1.39662280      10.39448837  T       0.00000000       0.00000000       0.00000000
O        7.94996248       2.94255436      12.51402732  T       0.00000000       0.00000000       0.00000000
O        4.78105425       0.51425817      12.74971289  T       0.00000000       0.00000000       0.00000000
O        4.77071672       2.94248464      12.52218819  T       0.00000000       0.00000000       0.00000000
O        3.18596988       4.81780524      13.67799326  T       0.00000000       0.00000000       0.00000000
O        6.36517423      11.27474347      13.70622735  T       0.00000000       0.00000000       0.00000000
O        4.76585465      10.00826748       2.73351527  F       0.00000000       0.00000000       0.00000000
O        4.76585465      12.47529802       2.73351527  F       0.00000000       0.00000000       0.00000000
O        3.17723643       8.02984482       3.96703054  F       0.00000000       0.00000000       0.00000000
O        3.17723643       8.02984482       1.50000000  F       0.00000000       0.00000000       0.00000000
O        4.76583213       9.26262741       6.08592309  F       0.00000000       0.00000000       0.00000000
O        3.17722243      11.24178386       7.22601453  F       0.00000000       0.00000000       0.00000000
O        3.17723643      11.24178275       4.71193793  F       0.00000000       0.00000000       0.00000000
O        4.76930481      10.05770247       9.54089915  T       0.00000000       0.00000000       0.00000000
O        4.76786981      12.51936036       8.93058326  T       0.00000000       0.00000000       0.00000000
O        3.18099901       7.84093870      10.40051864  T       0.00000000       0.00000000       0.00000000
O        3.17950306       8.30027706       7.94627384  T       0.00000000       0.00000000       0.00000000
O        4.77333356       6.91796113      12.77460388  T       0.00000000       0.00000000       0.00000000
O        4.76723480       9.36366593      12.60442159  T       0.00000000       0.00000000       0.00000000
O        3.18768392      11.33042485      13.81126664  T       0.00000000       0.00000000       0.00000000
O        3.18529081      11.54123547      11.23712602  T       0.00000000       0.00000000       0.00000000
O        7.94309108       3.58439162       2.73351527  F       0.00000000       0.00000000       0.00000000
O        7.94918706       0.51166376      12.77597627  T       0.00000000       0.00000000       0.00000000
O        3.18037315       1.87552449       7.94384085  T       0.00000000       0.00000000       0.00000000
O        3.18078726       1.38151498      10.39023504  T       0.00000000       0.00000000       0.00000000
O        4.76583238       6.79706024       6.08593407  F       0.00000000       0.00000000       0.00000000
O        6.36105341       4.80789450      13.67454848  T       0.00000000       0.00000000       0.00000000
O        4.77189967       6.09749631       8.92611707  T       0.00000000       0.00000000       0.00000000
O        6.36154249       5.17235052      11.20052918  T       0.00000000       0.00000000       0.00000000
O        7.94309108      10.00826748       2.73351527  F       0.00000000       0.00000000       0.00000000
O        7.94309108      12.47529802       2.73351527  F       0.00000000       0.00000000       0.00000000
O        6.35447286       8.02984482       3.96703054  F       0.00000000       0.00000000       0.00000000
O        6.35447286       8.02984482       1.50000000  F       0.00000000       0.00000000       0.00000000
O        7.94309077       6.79706319       6.08592610  F       0.00000000       0.00000000       0.00000000
O        6.35446208      11.24178289       7.22597601  F       0.00000000       0.00000000       0.00000000
O        6.35447286      11.24178275       4.71193793  F       0.00000000       0.00000000       0.00000000
O        7.94453471      10.06095710       9.54080875  T       0.00000000       0.00000000       0.00000000
O        7.94309115       9.26262662       6.08591614  F       0.00000000       0.00000000       0.00000000
O        6.35504165       7.83979712      10.41545913  T       0.00000000       0.00000000       0.00000000
O        4.77068775       3.63419871       9.53237750  T       0.00000000       0.00000000       0.00000000
O        7.94677708      12.51664579       8.93116233  T       0.00000000       0.00000000       0.00000000
O        3.17723643       4.81790689       4.71193793  F       0.00000000       0.00000000       0.00000000
O        6.35447286       1.60596896       3.96703054  F       0.00000000       0.00000000       0.00000000
O        7.94309701       0.37317906       6.08592278  F       0.00000000       0.00000000       0.00000000
O        7.94309108       6.05142216       2.73351527  F       0.00000000       0.00000000       0.00000000
O        7.94794191       6.92263742      12.77692692  T       0.00000000       0.00000000       0.00000000
O        6.35762636       8.30028093       7.94949769  T       0.00000000       0.00000000       0.00000000
O        7.94819719       9.36141215      12.57371995  T       0.00000000       0.00000000       0.00000000
Pd       4.76586017      11.24177762       5.96678586  F       0.00000000       0.00000000       0.00000000
Pd       4.81024628      11.36808545      12.46265707  T       0.00000000       0.00000000       0.00000000
Pd       3.18310150       8.11408484      12.37859198  T       0.00000000       0.00000000       0.00000000
Pd       1.55949177      11.36619706      12.46526974  T       0.00000000       0.00000000       0.00000000
Pd       3.17725104       8.02984249       5.93124939  F       0.00000000       0.00000000       0.00000000
Pd       9.53167951       8.02984246       5.93125040  F       0.00000000       0.00000000       0.00000000
Pd       7.94309108       1.60596896       2.73351527  F       0.00000000       0.00000000       0.00000000
Pd       6.35447286       4.81790689       2.73351527  F       0.00000000       0.00000000       0.00000000
Pd       1.58862042      11.24178075       5.96678264  F       0.00000000       0.00000000       0.00000000
Pd       9.53445134       8.12632210      12.39576817  T       0.00000000       0.00000000       0.00000000
Pd       6.36341234       1.71736209      12.36288423  T       0.00000000       0.00000000       0.00000000
Pd       6.35446907       1.60596427       5.93125186  F       0.00000000       0.00000000       0.00000000
Pd       0.00000000      11.24178275       2.73351527  F       0.00000000       0.00000000       0.00000000
Pd       1.58861822       8.02984482       2.73351527  F       0.00000000       0.00000000       0.00000000
Pd       7.94685958       1.65898282       9.16753111  T       0.00000000       0.00000000       0.00000000
Pd       6.35986430       4.87317293       9.23429486  T       0.00000000       0.00000000       0.00000000
Pd       3.17723643      11.24178275       2.73351527  F       0.00000000       0.00000000       0.00000000
Pd       4.76585465       8.02984482       2.73351527  F       0.00000000       0.00000000       0.00000000
Pd       9.53478397       1.71540373      12.36108237  T       0.00000000       0.00000000       0.00000000
Pd       4.76972824       8.08513455       9.17472586  T       0.00000000       0.00000000       0.00000000
Pd       1.59089218       8.08448445       9.17463201  T       0.00000000       0.00000000       0.00000000
Pd       7.94307467       4.81790887       5.96677722  F       0.00000000       0.00000000       0.00000000
Pd       9.53666369      11.29231684       9.23597872  T       0.00000000       0.00000000       0.00000000
Pd       9.53753715       4.87420789       9.23419635  T       0.00000000       0.00000000       0.00000000
Pd       7.94935408       4.93904847      12.44645037  T       0.00000000       0.00000000       0.00000000
Pd       4.76585465       1.60596896       2.73351527  F       0.00000000       0.00000000       0.00000000
Pd       4.77413324       4.93634078      12.44779314  T       0.00000000       0.00000000       0.00000000
Pd       7.94307042      11.24177723       5.96677003  F       0.00000000       0.00000000       0.00000000
Pd       6.35446228       8.02984189       5.93125037  F       0.00000000       0.00000000       0.00000000
Pd       6.35447286      11.24178275       2.73351527  F       0.00000000       0.00000000       0.00000000
Pd       7.94309108       8.02984482       2.73351527  F       0.00000000       0.00000000       0.00000000
Pd       3.18368995       1.71890336      12.34712623  T       0.00000000       0.00000000       0.00000000
Pd       1.59181237       1.65864138       9.16679797  T       0.00000000       0.00000000       0.00000000
Pd       3.18002093      11.29442072       9.24657003  T       0.00000000       0.00000000       0.00000000
Pd       7.94541321       8.08556256       9.18023544  T       0.00000000       0.00000000       0.00000000
Pd       6.35507463      11.29337487       9.23473422  T       0.00000000       0.00000000       0.00000000
Pd       1.58861839       4.81790857       5.96677563  F       0.00000000       0.00000000       0.00000000
Pd       4.76586828       4.81790686       5.96677661  F       0.00000000       0.00000000       0.00000000
Pd       3.18278473       4.87417419       9.23437338  T       0.00000000       0.00000000       0.00000000
Pd       4.77039783       1.65926787       9.16813976  T       0.00000000       0.00000000       0.00000000
Pd       7.94963413      11.36379008      12.48151834  T       0.00000000       0.00000000       0.00000000
Pd       6.35928268       8.12804606      12.39669224  T       0.00000000       0.00000000       0.00000000
Pd       3.17725665       1.60596829       5.93125128  F       0.00000000       0.00000000       0.00000000
Pd       0.00000000       4.81790689       2.73351527  F       0.00000000       0.00000000       0.00000000
Pd       9.53168164       1.60596920       5.93125239  F       0.00000000       0.00000000       0.00000000
Pd       3.17723643       4.81790689       2.73351527  F       0.00000000       0.00000000       0.00000000
Pd       1.59676963       4.93456304      12.44724200  T       0.00000000       0.00000000       0.00000000
Pd       1.58861822       1.60596896       2.73351527  F       0.00000000       0.00000000       0.00000000
O        0.47442165       8.83122338      17.10369499  T       0.00000000       0.00000000       0.00000000
C        1.34258576       8.62330726      16.27490520  T       0.00000000       0.00000000       0.00000000
H        2.42671525       8.82026014      16.50324221  T       0.00000000       0.00000000       0.00000000
H        1.11438527       8.21749758      15.25645745  T       0.00000000       0.00000000       0.00000000
H        3.19631795      10.42886698      14.19731103  T       0.00000000       0.00000000       0.00000000
