149
Lattice="9.531709292017604 0.0 0.0 0.0 12.847751714415933 0.0 0.0 0.0 32.10284432209217" Properties=species:S:1:pos:R:3:move_mask:L:1:momenta:R:3 adsorbate_info="_JSON {\"site\": {\"coordinates\": [6.884009994145889, 0.13233432884604981, 12.885467066416277], \"connectivity\": 3, \"topology\": [53, 70, 106], \"n_vector\": [0.023185781460318463, 0.3000364625161246, 0.9536459199822985], \"h_vector\": [0.7864202097362779, -0.598485471762065, 0.15283453081057077], \"site_formula\": {\"O\": 2, \"Pd\": 1}}, \"smiles\": \"ClOC\", \"mdf\": 2.0537039659672582, \"adsorbate_formula\": \"CH3O\"}" mace_E=-764.8846982129393 converged=T n_steps=69 d_min=1.9795913635948048 site_type=unknown dE_rel_meV=0 original_idx=252 rank=191 E_MACE=-764.9180546073891 pbc="T T T"
O        3.17841845       4.50391785      11.21645150  T       0.00000000       0.00000000       0.00000000
O        1.59435223       0.30259673      12.43237284  T       0.00000000       0.00000000       0.00000000
O        1.59679934       2.72320760      12.82261947  T       0.00000000       0.00000000       0.00000000
O        9.53405266       4.84566821      13.69472170  T       0.00000000       0.00000000       0.00000000
O        0.01587389       4.50162601      11.21624347  T       0.00000000       0.00000000       0.00000000
O        1.58861822      10.00826748       2.73351527  F       0.00000000       0.00000000       0.00000000
O        1.58861822      12.47529802       2.73351527  F       0.00000000       0.00000000       0.00000000
O        4.76584344       2.83874884       6.08591509  F       0.00000000       0.00000000       0.00000000
O        0.00000000       8.02984482       1.50000000  F       0.00000000       0.00000000       0.00000000
O        1.58861107       6.79705424       6.08592811  F       0.00000000       0.00000000       0.00000000
O        9.52602810       1.35945729       7.94904540  T       0.00000000       0.00000000       0.00000000
O        1.58861150       9.26263623       6.08591827  F       0.00000000       0.00000000       0.00000000
O        4.76583598       0.37317881       6.08593111  F       0.00000000       0.00000000       0.00000000
O        6.36299758      10.87252930      11.18986811  T       0.00000000       0.00000000       0.00000000
O        3.17723028       4.81790423       7.22598268  F       0.00000000       0.00000000       0.00000000
O        6.35447286       1.60596896       1.50000000  F       0.00000000       0.00000000       0.00000000
O        7.94309377       2.83875127       6.08591528  F       0.00000000       0.00000000       0.00000000
O        6.35447101       4.81790868       7.22598243  F       0.00000000       0.00000000       0.00000000
O        6.35447286       4.81790689       4.71193793  F       0.00000000       0.00000000       0.00000000
O        7.94632005       3.57282927       8.93394536  T       0.00000000       0.00000000       0.00000000
O        7.95068093       6.02590302       9.53972443  T       0.00000000       0.00000000       0.00000000
O        0.00000338      11.24178289       7.22597220  F       0.00000000       0.00000000       0.00000000
O        1.59286969       6.02422369       9.53632964  T       0.00000000       0.00000000       0.00000000
O        1.59159126       3.56880777       8.92437092  T       0.00000000       0.00000000       0.00000000
O        0.00000000       4.81790689       4.71193793  F       0.00000000       0.00000000       0.00000000
O        1.59100353      12.45062901       9.52513724  T       0.00000000       0.00000000       0.00000000
O        0.00443698       8.24897342      10.41383737  T       0.00000000       0.00000000       0.00000000
O        0.01107087      10.88824455      11.19550022  T       0.00000000       0.00000000       0.00000000
O        4.76585465       6.05142216       2.73351527  F       0.00000000       0.00000000       0.00000000
O        9.53325100       7.77753774       7.95165598  T       0.00000000       0.00000000       0.00000000
O        3.17723643       1.60596896       3.96703054  F       0.00000000       0.00000000       0.00000000
O        9.53872115      11.32502479      13.66280264  T       0.00000000       0.00000000       0.00000000
O        1.59607305       9.17001698      12.79196057  T       0.00000000       0.00000000       0.00000000
O        4.76585465       3.58439162       2.73351527  F       0.00000000       0.00000000       0.00000000
O        1.59414812       6.72541149      12.56099033  T       0.00000000       0.00000000       0.00000000
O        3.17723643       1.60596896       1.50000000  F       0.00000000       0.00000000       0.00000000
O        0.00000000       8.02984482       3.96703054  F       0.00000000       0.00000000       0.00000000
O        1.59183491       9.98250727       8.93219967  T       0.00000000       0.00000000       0.00000000
O        0.00000000      11.24178275       4.71193793  F       0.00000000       0.00000000       0.00000000
O        1.58861822       3.58439162       2.73351527  F       0.00000000       0.00000000       0.00000000
O        1.58861822       6.05142216       2.73351527  F       0.00000000       0.00000000       0.00000000
O        0.00000000       1.60596896       3.96703054  F       0.00000000       0.00000000       0.00000000
O        0.00000000       1.60596896       1.50000000  F       0.00000000       0.00000000       0.00000000
O        1.58861510       0.37317604       6.08592568  F       0.00000000       0.00000000       0.00000000
O        1.58861475       2.83876150       6.08591621  F       0.00000000       0.00000000       0.00000000
O        0.00000677       4.81790638       7.22598148  F       0.00000000       0.00000000       0.00000000
O        6.35792827       1.88912789      10.42949148  T       0.00000000       0.00000000       0.00000000
O        6.35777556       1.35061902       7.95459373  T       0.00000000       0.00000000       0.00000000
O        0.00502239       1.88382594      10.38624269  T       0.00000000       0.00000000       0.00000000
O        7.97321296       2.73229287      12.77368112  T       0.00000000       0.00000000       0.00000000
O        4.76740877       0.29310932      12.10078125  T       0.00000000       0.00000000       0.00000000
O        4.74896179       2.72825104      12.75988478  T       0.00000000       0.00000000       0.00000000
O        3.19285904       4.83840179      13.69912294  T       0.00000000       0.00000000       0.00000000
O        6.36061692      11.26525587      13.65193286  T       0.00000000       0.00000000       0.00000000
O        4.76585465      10.00826748       2.73351527  F       0.00000000       0.00000000       0.00000000
O        4.76585465      12.47529802       2.73351527  F       0.00000000       0.00000000       0.00000000
O        3.17723643       8.02984482       3.96703054  F       0.00000000       0.00000000       0.00000000
O        3.17723643       8.02984482       1.50000000  F       0.00000000       0.00000000       0.00000000
O        4.76583213       9.26262741       6.08592309  F       0.00000000       0.00000000       0.00000000
O        3.17722243      11.24178386       7.22601453  F       0.00000000       0.00000000       0.00000000
O        3.17723643      11.24178275       4.71193793  F       0.00000000       0.00000000       0.00000000
O        4.76433059       9.98052025       8.92716809  T       0.00000000       0.00000000       0.00000000
O        4.77093232      12.44256161       9.46515295  T       0.00000000       0.00000000       0.00000000
O        3.17778672       8.24755573      10.41396606  T       0.00000000       0.00000000       0.00000000
O        3.17889945       7.77671812       7.95135588  T       0.00000000       0.00000000       0.00000000
O        4.77107297       6.73402748      12.56387168  T       0.00000000       0.00000000       0.00000000
O        4.76938114       9.17339118      12.80662169  T       0.00000000       0.00000000       0.00000000
O        3.18935933      11.33375526      13.66024886  T       0.00000000       0.00000000       0.00000000
O        3.17923223      10.89112463      11.19501055  T       0.00000000       0.00000000       0.00000000
O        7.94309108       3.58439162       2.73351527  F       0.00000000       0.00000000       0.00000000
O        7.95498197       0.29546135      12.11206110  T       0.00000000       0.00000000       0.00000000
O        3.18844106       1.36093933       7.94864383  T       0.00000000       0.00000000       0.00000000
O        3.17934914       1.88177186      10.38451153  T       0.00000000       0.00000000       0.00000000
O        4.76583238       6.79706024       6.08593407  F       0.00000000       0.00000000       0.00000000
O        6.36344932       4.88179106      13.67981356  T       0.00000000       0.00000000       0.00000000
O        4.76596454       6.02460702       9.53936899  T       0.00000000       0.00000000       0.00000000
O        6.36193178       4.53333139      11.20932837  T       0.00000000       0.00000000       0.00000000
O        7.94309108      10.00826748       2.73351527  F       0.00000000       0.00000000       0.00000000
O        7.94309108      12.47529802       2.73351527  F       0.00000000       0.00000000       0.00000000
O        6.35447286       8.02984482       3.96703054  F       0.00000000       0.00000000       0.00000000
O        6.35447286       8.02984482       1.50000000  F       0.00000000       0.00000000       0.00000000
O        7.94309077       6.79706319       6.08592610  F       0.00000000       0.00000000       0.00000000
O        6.35446208      11.24178289       7.22597601  F       0.00000000       0.00000000       0.00000000
O        6.35447286      11.24178275       4.71193793  F       0.00000000       0.00000000       0.00000000
O        7.94915576       9.97982485       8.92828441  T       0.00000000       0.00000000       0.00000000
O        7.94309115       9.26262662       6.08591614  F       0.00000000       0.00000000       0.00000000
O        6.35703003       8.24645103      10.41411843  T       0.00000000       0.00000000       0.00000000
O        4.77150960       3.57226073       8.93679734  T       0.00000000       0.00000000       0.00000000
O        7.94535935      12.44200899       9.47468821  T       0.00000000       0.00000000       0.00000000
O        3.17723643       4.81790689       4.71193793  F       0.00000000       0.00000000       0.00000000
O        6.35447286       1.60596896       3.96703054  F       0.00000000       0.00000000       0.00000000
O        7.94309701       0.37317906       6.08592278  F       0.00000000       0.00000000       0.00000000
O        7.94309108       6.05142216       2.73351527  F       0.00000000       0.00000000       0.00000000
O        7.95331022       6.73385045      12.56007605  T       0.00000000       0.00000000       0.00000000
O        6.35547799       7.77768221       7.95310472  T       0.00000000       0.00000000       0.00000000
O        7.95275314       9.17443419      12.80530820  T       0.00000000       0.00000000       0.00000000
Pd       4.76586017      11.24177762       5.96678586  F       0.00000000       0.00000000       0.00000000
Pd       4.77369738      11.16564086      12.43986176  T       0.00000000       0.00000000       0.00000000
Pd       3.18325100       7.96235528      12.39075649  T       0.00000000       0.00000000       0.00000000
Pd       1.59602633      11.15544446      12.44163873  T       0.00000000       0.00000000       0.00000000
Pd       3.17725104       8.02984249       5.93124939  F       0.00000000       0.00000000       0.00000000
Pd       9.53167951       8.02984246       5.93125040  F       0.00000000       0.00000000       0.00000000
Pd       7.94309108       1.60596896       2.73351527  F       0.00000000       0.00000000       0.00000000
Pd       6.35447286       4.81790689       2.73351527  F       0.00000000       0.00000000       0.00000000
Pd       1.58862042      11.24178075       5.96678264  F       0.00000000       0.00000000       0.00000000
Pd       9.53848939       7.96342716      12.39027038  T       0.00000000       0.00000000       0.00000000
Pd       6.36081563       1.51612417      12.43858382  T       0.00000000       0.00000000       0.00000000
Pd       6.35446907       1.60596427       5.93125186  F       0.00000000       0.00000000       0.00000000
Pd       0.00000000      11.24178275       2.73351527  F       0.00000000       0.00000000       0.00000000
Pd       1.58861822       8.02984482       2.73351527  F       0.00000000       0.00000000       0.00000000
Pd       7.93705450       1.58860033       9.18615567  T       0.00000000       0.00000000       0.00000000
Pd       6.35901370       4.79509152       9.23923084  T       0.00000000       0.00000000       0.00000000
Pd       3.17723643      11.24178275       2.73351527  F       0.00000000       0.00000000       0.00000000
Pd       4.76585465       8.02984482       2.73351527  F       0.00000000       0.00000000       0.00000000
Pd       9.53851297       1.53199895      12.34881605  T       0.00000000       0.00000000       0.00000000
Pd       4.76613280       7.99909094       9.17987024  T       0.00000000       0.00000000       0.00000000
Pd       1.59091347       7.99811120       9.17826136  T       0.00000000       0.00000000       0.00000000
Pd       7.94307467       4.81790887       5.96677722  F       0.00000000       0.00000000       0.00000000
Pd       9.53804976      11.20706170       9.23240545  T       0.00000000       0.00000000       0.00000000
Pd       9.53751870       4.78993955       9.24278050  T       0.00000000       0.00000000       0.00000000
Pd       7.95516523       4.73447310      12.45819301  T       0.00000000       0.00000000       0.00000000
Pd       4.76585465       1.60596896       2.73351527  F       0.00000000       0.00000000       0.00000000
Pd       4.77071494       4.73612860      12.45929274  T       0.00000000       0.00000000       0.00000000
Pd       7.94307042      11.24177723       5.96677003  F       0.00000000       0.00000000       0.00000000
Pd       6.35446228       8.02984189       5.93125037  F       0.00000000       0.00000000       0.00000000
Pd       6.35447286      11.24178275       2.73351527  F       0.00000000       0.00000000       0.00000000
Pd       7.94309108       8.02984482       2.73351527  F       0.00000000       0.00000000       0.00000000
Pd       3.18218238       1.52834619      12.34654336  T       0.00000000       0.00000000       0.00000000
Pd       1.59149064       1.58286121       9.16212420  T       0.00000000       0.00000000       0.00000000
Pd       3.17691763      11.20758020       9.23177518  T       0.00000000       0.00000000       0.00000000
Pd       7.94653697       7.99920827       9.17977556  T       0.00000000       0.00000000       0.00000000
Pd       6.35821228      11.20169516       9.22903122  T       0.00000000       0.00000000       0.00000000
Pd       1.58861839       4.81790857       5.96677563  F       0.00000000       0.00000000       0.00000000
Pd       4.76586828       4.81790686       5.96677661  F       0.00000000       0.00000000       0.00000000
Pd       3.17944287       4.78888237       9.24212841  T       0.00000000       0.00000000       0.00000000
Pd       4.77857188       1.58862426       9.18503133  T       0.00000000       0.00000000       0.00000000
Pd       7.95130186      11.16672688      12.44233801  T       0.00000000       0.00000000       0.00000000
Pd       6.36153017       7.96942019      12.39312161  T       0.00000000       0.00000000       0.00000000
Pd       3.17725665       1.60596829       5.93125128  F       0.00000000       0.00000000       0.00000000
Pd       0.00000000       4.81790689       2.73351527  F       0.00000000       0.00000000       0.00000000
Pd       9.53168164       1.60596920       5.93125239  F       0.00000000       0.00000000       0.00000000
Pd       3.17723643       4.81790689       2.73351527  F       0.00000000       0.00000000       0.00000000
Pd       1.59794919       4.71892503      12.47845497  T       0.00000000       0.00000000       0.00000000
Pd       1.58861822       1.60596896       2.73351527  F       0.00000000       0.00000000       0.00000000
O        6.39964038       1.12493109      14.38128801  T       0.00000000       0.00000000       0.00000000
C        6.22316065       2.19147029      15.28584174  T       0.00000000       0.00000000       0.00000000
H        6.41478611       1.75233744      16.28404731  T       0.00000000       0.00000000       0.00000000
H        6.92246116       3.03428701      15.09317063  T       0.00000000       0.00000000       0.00000000
H        5.19762258       2.61537686      15.24291191  T       0.00000000       0.00000000       0.00000000
