149
Lattice="9.531709292017604 0.0 0.0 0.0 12.847751714415933 0.0 0.0 0.0 32.10284432209217" Properties=species:S:1:pos:R:3:move_mask:L:1:momenta:R:3 adsorbate_info="_JSON {\"site\": {\"coordinates\": [9.531703753214302, 1.6059870352734633, 12.346755730444055], \"connectivity\": 1, \"topology\": [114], \"n_vector\": [-0.0018693918530661973, 0.0020723373829409854, 0.9999961053883515], \"h_vector\": [1.0, 0.0, 0.0], \"site_formula\": {\"Pd\": 1}}, \"smiles\": \"ClOC\", \"mdf\": 1.709786969090509, \"adsorbate_formula\": \"CH3O\"}" mace_E=-764.8839081753962 converged=T n_steps=81 d_min=1.9772691676953522 site_type=unknown dE_rel_meV=0 original_idx=370 rank=193 E_MACE=-764.9139350505388 pbc="T T T"
O        3.18759894       5.18223840      11.20069927  T       0.00000000       0.00000000       0.00000000
O        1.62302052       0.48180376      12.73430949  T       0.00000000       0.00000000       0.00000000
O        1.60459862       2.91942352      12.09935607  T       0.00000000       0.00000000       0.00000000
O        9.54269195       4.75627874      13.65851549  T       0.00000000       0.00000000       0.00000000
O        0.00423121       5.19359935      11.19499333  T       0.00000000       0.00000000       0.00000000
O        1.58861822      10.00826748       2.73351527  F       0.00000000       0.00000000       0.00000000
O        1.58861822      12.47529802       2.73351527  F       0.00000000       0.00000000       0.00000000
O        4.76584344       2.83874884       6.08591509  F       0.00000000       0.00000000       0.00000000
O        0.00000000       8.02984482       1.50000000  F       0.00000000       0.00000000       0.00000000
O        1.58861107       6.79705424       6.08592811  F       0.00000000       0.00000000       0.00000000
O        9.53221890       1.86772065       7.95764043  T       0.00000000       0.00000000       0.00000000
O        1.58861150       9.26263623       6.08591827  F       0.00000000       0.00000000       0.00000000
O        4.76583598       0.37317881       6.08593111  F       0.00000000       0.00000000       0.00000000
O        6.35614211      11.56526155      11.21146745  T       0.00000000       0.00000000       0.00000000
O        3.17723028       4.81790423       7.22598268  F       0.00000000       0.00000000       0.00000000
O        6.35447286       1.60596896       1.50000000  F       0.00000000       0.00000000       0.00000000
O        7.94309377       2.83875127       6.08591528  F       0.00000000       0.00000000       0.00000000
O        6.35447101       4.81790868       7.22598243  F       0.00000000       0.00000000       0.00000000
O        6.35447286       4.81790689       4.71193793  F       0.00000000       0.00000000       0.00000000
O        7.94601195       3.63042022       9.48518954  T       0.00000000       0.00000000       0.00000000
O        7.94339866       6.09123641       8.92203727  T       0.00000000       0.00000000       0.00000000
O        0.00000338      11.24178289       7.22597220  F       0.00000000       0.00000000       0.00000000
O        1.59248336       6.09263359       8.92441310  T       0.00000000       0.00000000       0.00000000
O        1.58956296       3.63258731       9.46676806  T       0.00000000       0.00000000       0.00000000
O        0.00000000       4.81790689       4.71193793  F       0.00000000       0.00000000       0.00000000
O        1.58937514      12.50192541       8.93902090  T       0.00000000       0.00000000       0.00000000
O        0.00419227       7.81355415      10.40356209  T       0.00000000       0.00000000       0.00000000
O        0.00305374      11.54849625      11.20830417  T       0.00000000       0.00000000       0.00000000
O        4.76585465       6.05142216       2.73351527  F       0.00000000       0.00000000       0.00000000
O        9.53367993       8.29592664       7.94802773  T       0.00000000       0.00000000       0.00000000
O        3.17723643       1.60596896       3.96703054  F       0.00000000       0.00000000       0.00000000
O        9.54576329      11.18626730      13.68131892  T       0.00000000       0.00000000       0.00000000
O        1.58918296       9.32549565      12.52527177  T       0.00000000       0.00000000       0.00000000
O        4.76585465       3.58439162       2.73351527  F       0.00000000       0.00000000       0.00000000
O        1.59663157       6.88657271      12.80404671  T       0.00000000       0.00000000       0.00000000
O        3.17723643       1.60596896       1.50000000  F       0.00000000       0.00000000       0.00000000
O        0.00000000       8.02984482       3.96703054  F       0.00000000       0.00000000       0.00000000
O        1.59246234      10.04478795       9.53241515  T       0.00000000       0.00000000       0.00000000
O        0.00000000      11.24178275       4.71193793  F       0.00000000       0.00000000       0.00000000
O        1.58861822       3.58439162       2.73351527  F       0.00000000       0.00000000       0.00000000
O        1.58861822       6.05142216       2.73351527  F       0.00000000       0.00000000       0.00000000
O        0.00000000       1.60596896       3.96703054  F       0.00000000       0.00000000       0.00000000
O        0.00000000       1.60596896       1.50000000  F       0.00000000       0.00000000       0.00000000
O        1.58861510       0.37317604       6.08592568  F       0.00000000       0.00000000       0.00000000
O        1.58861475       2.83876150       6.08591621  F       0.00000000       0.00000000       0.00000000
O        0.00000677       4.81790638       7.22598148  F       0.00000000       0.00000000       0.00000000
O        6.35268930       1.34366181      10.39277074  T       0.00000000       0.00000000       0.00000000
O        6.36718650       1.86333615       7.95371253  T       0.00000000       0.00000000       0.00000000
O        0.00065581       1.34358315      10.43353563  T       0.00000000       0.00000000       0.00000000
O        7.94553494       2.91376375      12.13600758  T       0.00000000       0.00000000       0.00000000
O        4.77218685       0.48057248      12.81996687  T       0.00000000       0.00000000       0.00000000
O        4.77641889       2.90994482      12.45241466  T       0.00000000       0.00000000       0.00000000
O        3.17783238       4.71619894      13.66695487  T       0.00000000       0.00000000       0.00000000
O        6.36396043      11.18493498      13.68474213  T       0.00000000       0.00000000       0.00000000
O        4.76585465      10.00826748       2.73351527  F       0.00000000       0.00000000       0.00000000
O        4.76585465      12.47529802       2.73351527  F       0.00000000       0.00000000       0.00000000
O        3.17723643       8.02984482       3.96703054  F       0.00000000       0.00000000       0.00000000
O        3.17723643       8.02984482       1.50000000  F       0.00000000       0.00000000       0.00000000
O        4.76583213       9.26262741       6.08592309  F       0.00000000       0.00000000       0.00000000
O        3.17722243      11.24178386       7.22601453  F       0.00000000       0.00000000       0.00000000
O        3.17723643      11.24178275       4.71193793  F       0.00000000       0.00000000       0.00000000
O        4.76924902      10.04699580       9.52876915  T       0.00000000       0.00000000       0.00000000
O        4.76955020      12.50289263       8.92420708  T       0.00000000       0.00000000       0.00000000
O        3.18095606       7.81233596      10.40055039  T       0.00000000       0.00000000       0.00000000
O        3.17925638       8.29564404       7.94714421  T       0.00000000       0.00000000       0.00000000
O        4.77079818       6.89357638      12.78969244  T       0.00000000       0.00000000       0.00000000
O        4.77106914       9.32766444      12.51895027  T       0.00000000       0.00000000       0.00000000
O        3.17660411      11.19851088      13.68382974  T       0.00000000       0.00000000       0.00000000
O        3.18979770      11.56198278      11.20847397  T       0.00000000       0.00000000       0.00000000
O        7.94309108       3.58439162       2.73351527  F       0.00000000       0.00000000       0.00000000
O        7.92680556       0.47447762      12.79237489  T       0.00000000       0.00000000       0.00000000
O        3.16918347       1.86652118       7.95158216  T       0.00000000       0.00000000       0.00000000
O        3.18588920       1.34474936      10.38495027  T       0.00000000       0.00000000       0.00000000
O        4.76583238       6.79706024       6.08593407  F       0.00000000       0.00000000       0.00000000
O        6.36578538       4.72827724      13.67042849  T       0.00000000       0.00000000       0.00000000
O        4.76920705       6.08762524       8.92931259  T       0.00000000       0.00000000       0.00000000
O        6.35885055       5.18296097      11.20329717  T       0.00000000       0.00000000       0.00000000
O        7.94309108      10.00826748       2.73351527  F       0.00000000       0.00000000       0.00000000
O        7.94309108      12.47529802       2.73351527  F       0.00000000       0.00000000       0.00000000
O        6.35447286       8.02984482       3.96703054  F       0.00000000       0.00000000       0.00000000
O        6.35447286       8.02984482       1.50000000  F       0.00000000       0.00000000       0.00000000
O        7.94309077       6.79706319       6.08592610  F       0.00000000       0.00000000       0.00000000
O        6.35446208      11.24178289       7.22597601  F       0.00000000       0.00000000       0.00000000
O        6.35447286      11.24178275       4.71193793  F       0.00000000       0.00000000       0.00000000
O        7.94446833      10.04364316       9.53384370  T       0.00000000       0.00000000       0.00000000
O        7.94309115       9.26262662       6.08591614  F       0.00000000       0.00000000       0.00000000
O        6.35624518       7.81428308      10.40190568  T       0.00000000       0.00000000       0.00000000
O        4.76882625       3.62097855       9.52368620  T       0.00000000       0.00000000       0.00000000
O        7.94641867      12.50222764       8.93201095  T       0.00000000       0.00000000       0.00000000
O        3.17723643       4.81790689       4.71193793  F       0.00000000       0.00000000       0.00000000
O        6.35447286       1.60596896       3.96703054  F       0.00000000       0.00000000       0.00000000
O        7.94309701       0.37317906       6.08592278  F       0.00000000       0.00000000       0.00000000
O        7.94309108       6.05142216       2.73351527  F       0.00000000       0.00000000       0.00000000
O        7.94531660       6.88680271      12.80145634  T       0.00000000       0.00000000       0.00000000
O        6.35766192       8.29393197       7.94764290  T       0.00000000       0.00000000       0.00000000
O        7.95290707       9.32420661      12.52289040  T       0.00000000       0.00000000       0.00000000
Pd       4.76586017      11.24177762       5.96678586  F       0.00000000       0.00000000       0.00000000
Pd       4.77204430      11.33175357      12.46461947  T       0.00000000       0.00000000       0.00000000
Pd       3.17959996       8.09550193      12.37675686  T       0.00000000       0.00000000       0.00000000
Pd       1.59672475      11.32564262      12.44790585  T       0.00000000       0.00000000       0.00000000
Pd       3.17725104       8.02984249       5.93124939  F       0.00000000       0.00000000       0.00000000
Pd       9.53167951       8.02984246       5.93125040  F       0.00000000       0.00000000       0.00000000
Pd       7.94309108       1.60596896       2.73351527  F       0.00000000       0.00000000       0.00000000
Pd       6.35447286       4.81790689       2.73351527  F       0.00000000       0.00000000       0.00000000
Pd       1.58862042      11.24178075       5.96678264  F       0.00000000       0.00000000       0.00000000
Pd       9.53647417       8.08583456      12.37980650  T       0.00000000       0.00000000       0.00000000
Pd       6.36139541       1.67394454      12.35866713  T       0.00000000       0.00000000       0.00000000
Pd       6.35446907       1.60596427       5.93125186  F       0.00000000       0.00000000       0.00000000
Pd       0.00000000      11.24178275       2.73351527  F       0.00000000       0.00000000       0.00000000
Pd       1.58861822       8.02984482       2.73351527  F       0.00000000       0.00000000       0.00000000
Pd       7.95371977       1.63841435       9.19118637  T       0.00000000       0.00000000       0.00000000
Pd       6.35516950       4.86402244       9.23570665  T       0.00000000       0.00000000       0.00000000
Pd       3.17723643      11.24178275       2.73351527  F       0.00000000       0.00000000       0.00000000
Pd       4.76585465       8.02984482       2.73351527  F       0.00000000       0.00000000       0.00000000
Pd       9.54680251       1.69758322      12.44760039  T       0.00000000       0.00000000       0.00000000
Pd       4.76849671       8.07335400       9.17107334  T       0.00000000       0.00000000       0.00000000
Pd       1.59203070       8.07300593       9.17193044  T       0.00000000       0.00000000       0.00000000
Pd       7.94307467       4.81790887       5.96677722  F       0.00000000       0.00000000       0.00000000
Pd       9.53342786      11.27807891       9.23744234  T       0.00000000       0.00000000       0.00000000
Pd       9.53281057       4.87057526       9.23185290  T       0.00000000       0.00000000       0.00000000
Pd       7.94984568       4.88737562      12.44856948  T       0.00000000       0.00000000       0.00000000
Pd       4.76585465       1.60596896       2.73351527  F       0.00000000       0.00000000       0.00000000
Pd       4.77281002       4.90722200      12.44621948  T       0.00000000       0.00000000       0.00000000
Pd       7.94307042      11.24177723       5.96677003  F       0.00000000       0.00000000       0.00000000
Pd       6.35446228       8.02984189       5.93125037  F       0.00000000       0.00000000       0.00000000
Pd       6.35447286      11.24178275       2.73351527  F       0.00000000       0.00000000       0.00000000
Pd       7.94309108       8.02984482       2.73351527  F       0.00000000       0.00000000       0.00000000
Pd       3.19506396       1.68293219      12.34753782  T       0.00000000       0.00000000       0.00000000
Pd       1.58201477       1.63945130       9.18812781  T       0.00000000       0.00000000       0.00000000
Pd       3.18113006      11.28115387       9.23710364  T       0.00000000       0.00000000       0.00000000
Pd       7.94566323       8.07162102       9.17305291  T       0.00000000       0.00000000       0.00000000
Pd       6.35741984      11.28067169       9.23819698  T       0.00000000       0.00000000       0.00000000
Pd       1.58861839       4.81790857       5.96677563  F       0.00000000       0.00000000       0.00000000
Pd       4.76586828       4.81790686       5.96677661  F       0.00000000       0.00000000       0.00000000
Pd       3.18303277       4.86578910       9.23367331  T       0.00000000       0.00000000       0.00000000
Pd       4.76896644       1.64233842       9.16405111  T       0.00000000       0.00000000       0.00000000
Pd       7.94700186      11.32872274      12.45675801  T       0.00000000       0.00000000       0.00000000
Pd       6.36156707       8.09501284      12.37666683  T       0.00000000       0.00000000       0.00000000
Pd       3.17725665       1.60596829       5.93125128  F       0.00000000       0.00000000       0.00000000
Pd       0.00000000       4.81790689       2.73351527  F       0.00000000       0.00000000       0.00000000
Pd       9.53168164       1.60596920       5.93125239  F       0.00000000       0.00000000       0.00000000
Pd       3.17723643       4.81790689       2.73351527  F       0.00000000       0.00000000       0.00000000
Pd       1.59396458       4.88950632      12.44349763  T       0.00000000       0.00000000       0.00000000
Pd       1.58861822       1.60596896       2.73351527  F       0.00000000       0.00000000       0.00000000
O        9.50313444       2.04608981      14.40200894  T       0.00000000       0.00000000       0.00000000
C       10.18465459       1.15390848      15.25624802  T       0.00000000       0.00000000       0.00000000
H        9.81194755       1.37247190      16.27535370  T       0.00000000       0.00000000       0.00000000
H        9.98114521       0.08951407      14.98932955  T       0.00000000       0.00000000       0.00000000
H       11.28493517       1.30806903      15.21755454  T       0.00000000       0.00000000       0.00000000
