149
Lattice="9.531709292017604 0.0 0.0 0.0 12.847751714415933 0.0 0.0 0.0 32.10284432209217" Properties=species:S:1:pos:R:3:move_mask:L:1:momenta:R:3 adsorbate_info="_JSON {\"site\": {\"coordinates\": [7.413550209399795, 1.6059743937384954, 12.552581414007612], \"connectivity\": 3, \"topology\": [49, 70, 106], \"n_vector\": [0.004941478680529294, -0.001941045802366772, 0.9999859069655146], \"h_vector\": [3.880822819851596e-06, -0.9999999999793452, -5.1233501837507365e-06], \"site_formula\": {\"O\": 2, \"Pd\": 1}}, \"smiles\": \"ClOC\", \"mdf\": 1.9760057850512516, \"adsorbate_formula\": \"CH3O\"}" mace_E=-764.8911032652203 converged=T n_steps=75 d_min=0.9836301992398968 site_type=unknown dE_rel_meV=0 original_idx=285 rank=5 E_MACE=-767.2575389996656 pbc="T T T"
O        3.17518517       5.17608584      11.20005507  T       0.00000000       0.00000000       0.00000000
O        1.58916534       0.47233798      12.81779177  T       0.00000000       0.00000000       0.00000000
O        1.59234059       2.89924332      12.44984269  T       0.00000000       0.00000000       0.00000000
O        9.52588213       4.73648225      13.66901456  T       0.00000000       0.00000000       0.00000000
O        0.01023268       5.16767881      11.19735857  T       0.00000000       0.00000000       0.00000000
O        1.58861822      10.00826748       2.73351527  F       0.00000000       0.00000000       0.00000000
O        1.58861822      12.47529802       2.73351527  F       0.00000000       0.00000000       0.00000000
O        4.76584344       2.83874884       6.08591509  F       0.00000000       0.00000000       0.00000000
O        0.00000000       8.02984482       1.50000000  F       0.00000000       0.00000000       0.00000000
O        1.58861107       6.79705424       6.08592811  F       0.00000000       0.00000000       0.00000000
O        9.52200040       1.86136189       7.95300074  T       0.00000000       0.00000000       0.00000000
O        1.58861150       9.26263623       6.08591827  F       0.00000000       0.00000000       0.00000000
O        4.76583598       0.37317881       6.08593111  F       0.00000000       0.00000000       0.00000000
O        6.35711548      11.55861941      11.20783398  T       0.00000000       0.00000000       0.00000000
O        3.17723028       4.81790423       7.22598268  F       0.00000000       0.00000000       0.00000000
O        6.35447286       1.60596896       1.50000000  F       0.00000000       0.00000000       0.00000000
O        7.94309377       2.83875127       6.08591528  F       0.00000000       0.00000000       0.00000000
O        6.35447101       4.81790868       7.22598243  F       0.00000000       0.00000000       0.00000000
O        6.35447286       4.81790689       4.71193793  F       0.00000000       0.00000000       0.00000000
O        7.94533508       3.62321150       9.49280748  T       0.00000000       0.00000000       0.00000000
O        7.94639683       6.08207953       8.92983824  T       0.00000000       0.00000000       0.00000000
O        0.00000338      11.24178289       7.22597220  F       0.00000000       0.00000000       0.00000000
O        1.59117308       6.08217534       8.92897402  T       0.00000000       0.00000000       0.00000000
O        1.58917396       3.61642133       9.52703690  T       0.00000000       0.00000000       0.00000000
O        0.00000000       4.81790689       4.71193793  F       0.00000000       0.00000000       0.00000000
O        1.58862962      12.49780622       8.92422646  T       0.00000000       0.00000000       0.00000000
O        0.00503356       7.79887848      10.40097291  T       0.00000000       0.00000000       0.00000000
O        0.00658089      11.56746351      11.21242888  T       0.00000000       0.00000000       0.00000000
O        4.76585465       6.05142216       2.73351527  F       0.00000000       0.00000000       0.00000000
O        9.53426606       8.28794876       7.94917110  T       0.00000000       0.00000000       0.00000000
O        3.17723643       1.60596896       3.96703054  F       0.00000000       0.00000000       0.00000000
O        9.53128574      11.16876734      13.68223092  T       0.00000000       0.00000000       0.00000000
O        1.59317661       9.31879236      12.51172353  T       0.00000000       0.00000000       0.00000000
O        4.76585465       3.58439162       2.73351527  F       0.00000000       0.00000000       0.00000000
O        1.59260519       6.88412925      12.78482732  T       0.00000000       0.00000000       0.00000000
O        3.17723643       1.60596896       1.50000000  F       0.00000000       0.00000000       0.00000000
O        0.00000000       8.02984482       3.96703054  F       0.00000000       0.00000000       0.00000000
O        1.58834554      10.03909107       9.52784297  T       0.00000000       0.00000000       0.00000000
O        0.00000000      11.24178275       4.71193793  F       0.00000000       0.00000000       0.00000000
O        1.58861822       3.58439162       2.73351527  F       0.00000000       0.00000000       0.00000000
O        1.58861822       6.05142216       2.73351527  F       0.00000000       0.00000000       0.00000000
O        0.00000000       1.60596896       3.96703054  F       0.00000000       0.00000000       0.00000000
O        0.00000000       1.60596896       1.50000000  F       0.00000000       0.00000000       0.00000000
O        1.58861510       0.37317604       6.08592568  F       0.00000000       0.00000000       0.00000000
O        1.58861475       2.83876150       6.08591621  F       0.00000000       0.00000000       0.00000000
O        0.00000677       4.81790638       7.22598148  F       0.00000000       0.00000000       0.00000000
O        6.35699175       1.35001411      10.44182702  T       0.00000000       0.00000000       0.00000000
O        6.35859647       1.87011397       7.95847110  T       0.00000000       0.00000000       0.00000000
O        0.00145739       1.34303108      10.39466041  T       0.00000000       0.00000000       0.00000000
O        7.94494012       2.89942202      12.20702983  T       0.00000000       0.00000000       0.00000000
O        4.72458571       0.45971886      12.77152746  T       0.00000000       0.00000000       0.00000000
O        4.75911512       2.90663919      12.11344742  T       0.00000000       0.00000000       0.00000000
O        3.18748727       4.72287648      13.66707290  T       0.00000000       0.00000000       0.00000000
O        6.35609413      11.16210848      13.67007775  T       0.00000000       0.00000000       0.00000000
O        4.76585465      10.00826748       2.73351527  F       0.00000000       0.00000000       0.00000000
O        4.76585465      12.47529802       2.73351527  F       0.00000000       0.00000000       0.00000000
O        3.17723643       8.02984482       3.96703054  F       0.00000000       0.00000000       0.00000000
O        3.17723643       8.02984482       1.50000000  F       0.00000000       0.00000000       0.00000000
O        4.76583213       9.26262741       6.08592309  F       0.00000000       0.00000000       0.00000000
O        3.17722243      11.24178386       7.22601453  F       0.00000000       0.00000000       0.00000000
O        3.17723643      11.24178275       4.71193793  F       0.00000000       0.00000000       0.00000000
O        4.76647145      10.04089167       9.53252941  T       0.00000000       0.00000000       0.00000000
O        4.76970790      12.49901115       8.93651325  T       0.00000000       0.00000000       0.00000000
O        3.18027163       7.80150923      10.40183044  T       0.00000000       0.00000000       0.00000000
O        3.17886657       8.29007991       7.94692501  T       0.00000000       0.00000000       0.00000000
O        4.76802025       6.87502196      12.79907715  T       0.00000000       0.00000000       0.00000000
O        4.77349594       9.31223087      12.51836105  T       0.00000000       0.00000000       0.00000000
O        3.18240036      11.16400005      13.67920086  T       0.00000000       0.00000000       0.00000000
O        3.17296864      11.55224732      11.20925408  T       0.00000000       0.00000000       0.00000000
O        7.94309108       3.58439162       2.73351527  F       0.00000000       0.00000000       0.00000000
O        7.97574495       0.47125358      12.79842260  T       0.00000000       0.00000000       0.00000000
O        3.19066390       1.85654489       7.95063206  T       0.00000000       0.00000000       0.00000000
O        3.17585745       1.33442383      10.38800035  T       0.00000000       0.00000000       0.00000000
O        4.76583238       6.79706024       6.08593407  F       0.00000000       0.00000000       0.00000000
O        6.36227939       4.75765032      13.66022116  T       0.00000000       0.00000000       0.00000000
O        4.76510643       6.08088448       8.92642345  T       0.00000000       0.00000000       0.00000000
O        6.35545141       5.17389660      11.19540408  T       0.00000000       0.00000000       0.00000000
O        7.94309108      10.00826748       2.73351527  F       0.00000000       0.00000000       0.00000000
O        7.94309108      12.47529802       2.73351527  F       0.00000000       0.00000000       0.00000000
O        6.35447286       8.02984482       3.96703054  F       0.00000000       0.00000000       0.00000000
O        6.35447286       8.02984482       1.50000000  F       0.00000000       0.00000000       0.00000000
O        7.94309077       6.79706319       6.08592610  F       0.00000000       0.00000000       0.00000000
O        6.35446208      11.24178289       7.22597601  F       0.00000000       0.00000000       0.00000000
O        6.35447286      11.24178275       4.71193793  F       0.00000000       0.00000000       0.00000000
O        7.94603311      10.04030274       9.53532701  T       0.00000000       0.00000000       0.00000000
O        7.94309115       9.26262662       6.08591614  F       0.00000000       0.00000000       0.00000000
O        6.35574241       7.79548980      10.40121139  T       0.00000000       0.00000000       0.00000000
O        4.76761985       3.62237079       9.47526697  T       0.00000000       0.00000000       0.00000000
O        7.94196768      12.50056569       8.93336855  T       0.00000000       0.00000000       0.00000000
O        3.17723643       4.81790689       4.71193793  F       0.00000000       0.00000000       0.00000000
O        6.35447286       1.60596896       3.96703054  F       0.00000000       0.00000000       0.00000000
O        7.94309701       0.37317906       6.08592278  F       0.00000000       0.00000000       0.00000000
O        7.94309108       6.05142216       2.73351527  F       0.00000000       0.00000000       0.00000000
O        7.95295844       6.87941721      12.78517900  T       0.00000000       0.00000000       0.00000000
O        6.35637377       8.28884937       7.95032508  T       0.00000000       0.00000000       0.00000000
O        7.94604078       9.31741840      12.50886206  T       0.00000000       0.00000000       0.00000000
Pd       4.76586017      11.24177762       5.96678586  F       0.00000000       0.00000000       0.00000000
Pd       4.76681074      11.31482278      12.45051006  T       0.00000000       0.00000000       0.00000000
Pd       3.18382500       8.08489339      12.37428964  T       0.00000000       0.00000000       0.00000000
Pd       1.59052505      11.32382124      12.46271421  T       0.00000000       0.00000000       0.00000000
Pd       3.17725104       8.02984249       5.93124939  F       0.00000000       0.00000000       0.00000000
Pd       9.53167951       8.02984246       5.93125040  F       0.00000000       0.00000000       0.00000000
Pd       7.94309108       1.60596896       2.73351527  F       0.00000000       0.00000000       0.00000000
Pd       6.35447286       4.81790689       2.73351527  F       0.00000000       0.00000000       0.00000000
Pd       1.58862042      11.24178075       5.96678264  F       0.00000000       0.00000000       0.00000000
Pd       9.53673078       8.08667375      12.37087139  T       0.00000000       0.00000000       0.00000000
Pd       6.34553125       1.68220619      12.46328975  T       0.00000000       0.00000000       0.00000000
Pd       6.35446907       1.60596427       5.93125186  F       0.00000000       0.00000000       0.00000000
Pd       0.00000000      11.24178275       2.73351527  F       0.00000000       0.00000000       0.00000000
Pd       1.58861822       8.02984482       2.73351527  F       0.00000000       0.00000000       0.00000000
Pd       7.93613063       1.63465982       9.19389212  T       0.00000000       0.00000000       0.00000000
Pd       6.35705003       4.85864925       9.23309086  T       0.00000000       0.00000000       0.00000000
Pd       3.17723643      11.24178275       2.73351527  F       0.00000000       0.00000000       0.00000000
Pd       4.76585465       8.02984482       2.73351527  F       0.00000000       0.00000000       0.00000000
Pd       9.53919922       1.66708409      12.36197716  T       0.00000000       0.00000000       0.00000000
Pd       4.76703499       8.06500160       9.17233826  T       0.00000000       0.00000000       0.00000000
Pd       1.59173537       8.06563740       9.17230588  T       0.00000000       0.00000000       0.00000000
Pd       7.94307467       4.81790887       5.96677722  F       0.00000000       0.00000000       0.00000000
Pd       9.53287762      11.27749032       9.23923563  T       0.00000000       0.00000000       0.00000000
Pd       9.53606045       4.85802628       9.23294771  T       0.00000000       0.00000000       0.00000000
Pd       7.94825261       4.89023787      12.44045176  T       0.00000000       0.00000000       0.00000000
Pd       4.76585465       1.60596896       2.73351527  F       0.00000000       0.00000000       0.00000000
Pd       4.76633783       4.87969871      12.44671201  T       0.00000000       0.00000000       0.00000000
Pd       7.94307042      11.24177723       5.96677003  F       0.00000000       0.00000000       0.00000000
Pd       6.35446228       8.02984189       5.93125037  F       0.00000000       0.00000000       0.00000000
Pd       6.35447286      11.24178275       2.73351527  F       0.00000000       0.00000000       0.00000000
Pd       7.94309108       8.02984482       2.73351527  F       0.00000000       0.00000000       0.00000000
Pd       3.17406074       1.66710841      12.35241617  T       0.00000000       0.00000000       0.00000000
Pd       1.58910231       1.63667715       9.16540798  T       0.00000000       0.00000000       0.00000000
Pd       3.17688814      11.27526988       9.23722219  T       0.00000000       0.00000000       0.00000000
Pd       7.94600775       8.06499687       9.17421957  T       0.00000000       0.00000000       0.00000000
Pd       6.35617807      11.27618529       9.23742518  T       0.00000000       0.00000000       0.00000000
Pd       1.58861839       4.81790857       5.96677563  F       0.00000000       0.00000000       0.00000000
Pd       4.76586828       4.81790686       5.96677661  F       0.00000000       0.00000000       0.00000000
Pd       3.17548012       4.85674230       9.23383697  T       0.00000000       0.00000000       0.00000000
Pd       4.77964812       1.63352696       9.19058796  T       0.00000000       0.00000000       0.00000000
Pd       7.94570651      11.32151519      12.45540065  T       0.00000000       0.00000000       0.00000000
Pd       6.35913787       8.07843401      12.37401047  T       0.00000000       0.00000000       0.00000000
Pd       3.17725665       1.60596829       5.93125128  F       0.00000000       0.00000000       0.00000000
Pd       0.00000000       4.81790689       2.73351527  F       0.00000000       0.00000000       0.00000000
Pd       9.53168164       1.60596920       5.93125239  F       0.00000000       0.00000000       0.00000000
Pd       3.17723643       4.81790689       2.73351527  F       0.00000000       0.00000000       0.00000000
Pd       1.59227656       4.89589068      12.44660190  T       0.00000000       0.00000000       0.00000000
Pd       1.58861822       1.60596896       2.73351527  F       0.00000000       0.00000000       0.00000000
O        6.18966338       1.85344375      14.43617798  T       0.00000000       0.00000000       0.00000000
C        7.24423461       2.40748928      15.16356189  T       0.00000000       0.00000000       0.00000000
H        7.00719747       2.22043419      16.23033064  T       0.00000000       0.00000000       0.00000000
H        8.23156581       1.95679652      14.91680446  T       0.00000000       0.00000000       0.00000000
H        7.30721076       3.51088781      14.98065171  T       0.00000000       0.00000000       0.00000000
