149
Lattice="9.531709292017604 0.0 0.0 0.0 12.847751714415933 0.0 0.0 0.0 32.10284432209217" Properties=species:S:1:pos:R:3:move_mask:L:1:momenta:R:3 adsorbate_info="_JSON {\"site\": {\"coordinates\": [1.5886179550351078, 11.241782101472209, 13.654176450916712], \"connectivity\": 2, \"topology\": [31, 67], \"n_vector\": [-0.013068904100879679, -0.0036954066364039417, 0.999907769604474], \"h_vector\": [-0.9999999997583947, 4.4057729807732504e-08, -2.1982004971263277e-05], \"site_formula\": {\"O\": 2}}, \"smiles\": \"ClOC\", \"mdf\": 2.1421534262078783, \"adsorbate_formula\": \"CH3O\"}" mace_E=-764.4370569445003 converged=T n_steps=91 d_min=2.4165407677104045 site_type=unknown dE_rel_meV=0 original_idx=70 rank=382 E_MACE=-763.0119504942921 pbc="T T T"
O        3.17312425       5.20004459      11.21285074  T       0.00000000       0.00000000       0.00000000
O        1.58228288       0.50674483      12.79985536  T       0.00000000       0.00000000       0.00000000
O        1.57807250       2.95110377      12.51749852  T       0.00000000       0.00000000       0.00000000
O        9.52361273       4.81549638      13.68800158  T       0.00000000       0.00000000       0.00000000
O       -0.00612421       5.20343958      11.21591468  T       0.00000000       0.00000000       0.00000000
O        1.58861822      10.00826748       2.73351527  F       0.00000000       0.00000000       0.00000000
O        1.58861822      12.47529802       2.73351527  F       0.00000000       0.00000000       0.00000000
O        4.76584344       2.83874884       6.08591509  F       0.00000000       0.00000000       0.00000000
O        0.00000000       8.02984482       1.50000000  F       0.00000000       0.00000000       0.00000000
O        1.58861107       6.79705424       6.08592811  F       0.00000000       0.00000000       0.00000000
O        9.53207519       1.89530124       7.94878278  T       0.00000000       0.00000000       0.00000000
O        1.58861150       9.26263623       6.08591827  F       0.00000000       0.00000000       0.00000000
O        4.76583598       0.37317881       6.08593111  F       0.00000000       0.00000000       0.00000000
O        6.34472594      11.65077024      11.20185991  T       0.00000000       0.00000000       0.00000000
O        3.17723028       4.81790423       7.22598268  F       0.00000000       0.00000000       0.00000000
O        6.35447286       1.60596896       1.50000000  F       0.00000000       0.00000000       0.00000000
O        7.94309377       2.83875127       6.08591528  F       0.00000000       0.00000000       0.00000000
O        6.35447101       4.81790868       7.22598243  F       0.00000000       0.00000000       0.00000000
O        6.35447286       4.81790689       4.71193793  F       0.00000000       0.00000000       0.00000000
O        7.94307488       3.65769093       9.53784304  T       0.00000000       0.00000000       0.00000000
O        7.94065413       6.10875937       8.92033839  T       0.00000000       0.00000000       0.00000000
O        0.00000338      11.24178289       7.22597220  F       0.00000000       0.00000000       0.00000000
O        1.58571168       6.11018045       8.92081744  T       0.00000000       0.00000000       0.00000000
O        1.58638551       3.65726507       9.54216353  T       0.00000000       0.00000000       0.00000000
O        0.00000000       4.81790689       4.71193793  F       0.00000000       0.00000000       0.00000000
O        1.58649319      12.54440527       8.91235502  T       0.00000000       0.00000000       0.00000000
O       -0.00316501       7.80869573      10.35435932  T       0.00000000       0.00000000       0.00000000
O       -0.00965322      11.65313453      11.19370276  T       0.00000000       0.00000000       0.00000000
O        4.76585465       6.05142216       2.73351527  F       0.00000000       0.00000000       0.00000000
O        9.52869333       8.33575170       7.92788247  T       0.00000000       0.00000000       0.00000000
O        3.17723643       1.60596896       3.96703054  F       0.00000000       0.00000000       0.00000000
O        9.52620498      11.17258841      13.66200370  T       0.00000000       0.00000000       0.00000000
O        1.57876089       9.37956428      12.12184082  T       0.00000000       0.00000000       0.00000000
O        4.76585465       3.58439162       2.73351527  F       0.00000000       0.00000000       0.00000000
O        1.60837887       6.95895375      12.83067265  T       0.00000000       0.00000000       0.00000000
O        3.17723643       1.60596896       1.50000000  F       0.00000000       0.00000000       0.00000000
O        0.00000000       8.02984482       3.96703054  F       0.00000000       0.00000000       0.00000000
O        1.58385334      10.08373856       9.47472480  T       0.00000000       0.00000000       0.00000000
O        0.00000000      11.24178275       4.71193793  F       0.00000000       0.00000000       0.00000000
O        1.58861822       3.58439162       2.73351527  F       0.00000000       0.00000000       0.00000000
O        1.58861822       6.05142216       2.73351527  F       0.00000000       0.00000000       0.00000000
O        0.00000000       1.60596896       3.96703054  F       0.00000000       0.00000000       0.00000000
O        0.00000000       1.60596896       1.50000000  F       0.00000000       0.00000000       0.00000000
O        1.58861510       0.37317604       6.08592568  F       0.00000000       0.00000000       0.00000000
O        1.58861475       2.83876150       6.08591621  F       0.00000000       0.00000000       0.00000000
O        0.00000677       4.81790638       7.22598148  F       0.00000000       0.00000000       0.00000000
O        6.35258916       1.42050761      10.40295448  T       0.00000000       0.00000000       0.00000000
O        6.35355193       1.89618748       7.94692577  T       0.00000000       0.00000000       0.00000000
O       -0.00013991       1.42029852      10.40448119  T       0.00000000       0.00000000       0.00000000
O        7.94227906       2.95109676      12.51611716  T       0.00000000       0.00000000       0.00000000
O        4.75763342       0.51723683      12.78519783  T       0.00000000       0.00000000       0.00000000
O        4.76130952       2.95288362      12.50560386  T       0.00000000       0.00000000       0.00000000
O        3.17004530       4.80601819      13.68592753  T       0.00000000       0.00000000       0.00000000
O        6.35437216      11.17995338      13.67055569  T       0.00000000       0.00000000       0.00000000
O        4.76585465      10.00826748       2.73351527  F       0.00000000       0.00000000       0.00000000
O        4.76585465      12.47529802       2.73351527  F       0.00000000       0.00000000       0.00000000
O        3.17723643       8.02984482       3.96703054  F       0.00000000       0.00000000       0.00000000
O        3.17723643       8.02984482       1.50000000  F       0.00000000       0.00000000       0.00000000
O        4.76583213       9.26262741       6.08592309  F       0.00000000       0.00000000       0.00000000
O        3.17722243      11.24178386       7.22601453  F       0.00000000       0.00000000       0.00000000
O        3.17723643      11.24178275       4.71193793  F       0.00000000       0.00000000       0.00000000
O        4.76336164      10.07899942       9.53281126  T       0.00000000       0.00000000       0.00000000
O        4.76185666      12.54561067       8.92009336  T       0.00000000       0.00000000       0.00000000
O        3.16478204       7.81795008      10.38954449  T       0.00000000       0.00000000       0.00000000
O        3.17399678       8.30627737       7.94482938  T       0.00000000       0.00000000       0.00000000
O        4.75741754       6.95385887      12.82676112  T       0.00000000       0.00000000       0.00000000
O        4.75521132       9.37762661      12.44940360  T       0.00000000       0.00000000       0.00000000
O        3.15548646      11.19157434      13.66232737  T       0.00000000       0.00000000       0.00000000
O        3.17435436      11.64952475      11.19691196  T       0.00000000       0.00000000       0.00000000
O        7.94309108       3.58439162       2.73351527  F       0.00000000       0.00000000       0.00000000
O        7.93862000       0.50519943      12.80359316  T       0.00000000       0.00000000       0.00000000
O        3.17468206       1.89589205       7.94721344  T       0.00000000       0.00000000       0.00000000
O        3.17404835       1.42009833      10.40292594  T       0.00000000       0.00000000       0.00000000
O        4.76583238       6.79706024       6.08593407  F       0.00000000       0.00000000       0.00000000
O        6.34899789       4.81081678      13.68845948  T       0.00000000       0.00000000       0.00000000
O        4.76348869       6.10979933       8.92529747  T       0.00000000       0.00000000       0.00000000
O        6.34746876       5.19969527      11.21262107  T       0.00000000       0.00000000       0.00000000
O        7.94309108      10.00826748       2.73351527  F       0.00000000       0.00000000       0.00000000
O        7.94309108      12.47529802       2.73351527  F       0.00000000       0.00000000       0.00000000
O        6.35447286       8.02984482       3.96703054  F       0.00000000       0.00000000       0.00000000
O        6.35447286       8.02984482       1.50000000  F       0.00000000       0.00000000       0.00000000
O        7.94309077       6.79706319       6.08592610  F       0.00000000       0.00000000       0.00000000
O        6.35446208      11.24178289       7.22597601  F       0.00000000       0.00000000       0.00000000
O        6.35447286      11.24178275       4.71193793  F       0.00000000       0.00000000       0.00000000
O        7.94000664      10.08473638       9.47678157  T       0.00000000       0.00000000       0.00000000
O        7.94309115       9.26262662       6.08591614  F       0.00000000       0.00000000       0.00000000
O        6.35688280       7.80909504      10.39131303  T       0.00000000       0.00000000       0.00000000
O        4.76159013       3.65612749       9.53582061  T       0.00000000       0.00000000       0.00000000
O        7.94097240      12.54609085       8.91087291  T       0.00000000       0.00000000       0.00000000
O        3.17723643       4.81790689       4.71193793  F       0.00000000       0.00000000       0.00000000
O        6.35447286       1.60596896       3.96703054  F       0.00000000       0.00000000       0.00000000
O        7.94309701       0.37317906       6.08592278  F       0.00000000       0.00000000       0.00000000
O        7.94309108       6.05142216       2.73351527  F       0.00000000       0.00000000       0.00000000
O        7.90610794       6.96030923      12.83272644  T       0.00000000       0.00000000       0.00000000
O        6.35385122       8.30421815       7.94565368  T       0.00000000       0.00000000       0.00000000
O        7.93843065       9.38154423      12.10761941  T       0.00000000       0.00000000       0.00000000
Pd       4.76586017      11.24177762       5.96678586  F       0.00000000       0.00000000       0.00000000
Pd       4.75573865      11.37309144      12.44877419  T       0.00000000       0.00000000       0.00000000
Pd       3.16632990       8.14647110      12.35923266  T       0.00000000       0.00000000       0.00000000
Pd       1.58110572      11.35497330      12.44195153  T       0.00000000       0.00000000       0.00000000
Pd       3.17725104       8.02984249       5.93124939  F       0.00000000       0.00000000       0.00000000
Pd       9.53167951       8.02984246       5.93125040  F       0.00000000       0.00000000       0.00000000
Pd       7.94309108       1.60596896       2.73351527  F       0.00000000       0.00000000       0.00000000
Pd       6.35447286       4.81790689       2.73351527  F       0.00000000       0.00000000       0.00000000
Pd       1.58862042      11.24178075       5.96678264  F       0.00000000       0.00000000       0.00000000
Pd       9.52474370       8.17312069      12.49087559  T       0.00000000       0.00000000       0.00000000
Pd       6.35186876       1.71767981      12.37584918  T       0.00000000       0.00000000       0.00000000
Pd       6.35446907       1.60596427       5.93125186  F       0.00000000       0.00000000       0.00000000
Pd       0.00000000      11.24178275       2.73351527  F       0.00000000       0.00000000       0.00000000
Pd       1.58861822       8.02984482       2.73351527  F       0.00000000       0.00000000       0.00000000
Pd       7.94262545       1.67883890       9.17348898  T       0.00000000       0.00000000       0.00000000
Pd       6.35136513       4.89051066       9.24034628  T       0.00000000       0.00000000       0.00000000
Pd       3.17723643      11.24178275       2.73351527  F       0.00000000       0.00000000       0.00000000
Pd       4.76585465       8.02984482       2.73351527  F       0.00000000       0.00000000       0.00000000
Pd       9.52606877       1.71092630      12.37701498  T       0.00000000       0.00000000       0.00000000
Pd       4.76280721       8.09584172       9.16888458  T       0.00000000       0.00000000       0.00000000
Pd       1.57166764       8.09122737       9.15905669  T       0.00000000       0.00000000       0.00000000
Pd       7.94307467       4.81790887       5.96677722  F       0.00000000       0.00000000       0.00000000
Pd       9.52819132      11.32281813       9.22903453  T       0.00000000       0.00000000       0.00000000
Pd       9.52976627       4.89425718       9.24115800  T       0.00000000       0.00000000       0.00000000
Pd       7.93767466       4.96003628      12.46531854  T       0.00000000       0.00000000       0.00000000
Pd       4.76585465       1.60596896       2.73351527  F       0.00000000       0.00000000       0.00000000
Pd       4.75995954       4.96116849      12.46451391  T       0.00000000       0.00000000       0.00000000
Pd       7.94307042      11.24177723       5.96677003  F       0.00000000       0.00000000       0.00000000
Pd       6.35446228       8.02984189       5.93125037  F       0.00000000       0.00000000       0.00000000
Pd       6.35447286      11.24178275       2.73351527  F       0.00000000       0.00000000       0.00000000
Pd       7.94309108       8.02984482       2.73351527  F       0.00000000       0.00000000       0.00000000
Pd       3.16916037       1.71971898      12.37450104  T       0.00000000       0.00000000       0.00000000
Pd       1.58718645       1.67841720       9.17437246  T       0.00000000       0.00000000       0.00000000
Pd       3.17709646      11.31947100       9.23245248  T       0.00000000       0.00000000       0.00000000
Pd       7.95285783       8.09120702       9.16117389  T       0.00000000       0.00000000       0.00000000
Pd       6.34883214      11.32188357       9.23356570  T       0.00000000       0.00000000       0.00000000
Pd       1.58861839       4.81790857       5.96677563  F       0.00000000       0.00000000       0.00000000
Pd       4.76586828       4.81790686       5.96677661  F       0.00000000       0.00000000       0.00000000
Pd       3.17487173       4.89208693       9.24045292  T       0.00000000       0.00000000       0.00000000
Pd       4.76338711       1.68096035       9.17251187  T       0.00000000       0.00000000       0.00000000
Pd       7.93338673      11.35016483      12.44765550  T       0.00000000       0.00000000       0.00000000
Pd       6.34819594       8.15010835      12.35974031  T       0.00000000       0.00000000       0.00000000
Pd       3.17725665       1.60596829       5.93125128  F       0.00000000       0.00000000       0.00000000
Pd       0.00000000       4.81790689       2.73351527  F       0.00000000       0.00000000       0.00000000
Pd       9.53168164       1.60596920       5.93125239  F       0.00000000       0.00000000       0.00000000
Pd       3.17723643       4.81790689       2.73351527  F       0.00000000       0.00000000       0.00000000
Pd       1.58008505       4.95867822      12.46418797  T       0.00000000       0.00000000       0.00000000
Pd       1.58861822       1.60596896       2.73351527  F       0.00000000       0.00000000       0.00000000
O        1.72159429       8.99857460      16.78403570  T       0.00000000       0.00000000       0.00000000
C        0.66450046       9.31533093      16.26202712  T       0.00000000       0.00000000       0.00000000
H       -0.30077403       8.80924196      16.54668671  T       0.00000000       0.00000000       0.00000000
H        0.59017359      10.11908387      15.48236767  T       0.00000000       0.00000000       0.00000000
H       -0.02265215       8.54045584      13.98853712  T       0.00000000       0.00000000       0.00000000
