149
Lattice="9.531709292017604 0.0 0.0 0.0 12.847751714415933 0.0 0.0 0.0 32.10284432209217" Properties=species:S:1:pos:R:3:move_mask:L:1:momenta:R:3 adsorbate_info="_JSON {\"site\": {\"coordinates\": [1.5886139596601088, 0.39699481094695027, 12.655515307866384], \"connectivity\": 1, \"topology\": [1], \"n_vector\": [-0.03330407530270873, 0.2566960766408052, 0.9659181967462096], \"h_vector\": [1.0, 0.0, 0.0], \"site_formula\": {\"O\": 1}}, \"smiles\": \"ClOC\", \"mdf\": 1.7097869690905105, \"adsorbate_formula\": \"CH3O\"}" mace_E=-766.8246606678166 converged=T n_steps=110 d_min=0.9833238502273888 site_type=atop dE_rel_meV=0 original_idx=39 rank=2 E_MACE=-767.2587889905487 pbc="T T T"
O        3.17754339       5.21961165      11.20906162  T       0.00000000       0.00000000       0.00000000
O        1.58381651       0.57565480      12.76401555  T       0.00000000       0.00000000       0.00000000
O        1.58189074       3.01079157      12.55016909  T       0.00000000       0.00000000       0.00000000
O        9.53081517       4.90389657      13.69276228  T       0.00000000       0.00000000       0.00000000
O       -0.00067055       5.21662242      11.20652537  T       0.00000000       0.00000000       0.00000000
O        1.58861822      10.00826748       2.73351527  F       0.00000000       0.00000000       0.00000000
O        1.58861822      12.47529802       2.73351527  F       0.00000000       0.00000000       0.00000000
O        4.76584344       2.83874884       6.08591509  F       0.00000000       0.00000000       0.00000000
O        0.00000000       8.02984482       1.50000000  F       0.00000000       0.00000000       0.00000000
O        1.58861107       6.79705424       6.08592811  F       0.00000000       0.00000000       0.00000000
O        9.53070830       1.88679270       7.94179116  T       0.00000000       0.00000000       0.00000000
O        1.58861150       9.26263623       6.08591827  F       0.00000000       0.00000000       0.00000000
O        4.76583598       0.37317881       6.08593111  F       0.00000000       0.00000000       0.00000000
O        6.35283436      11.65439747      11.20686453  T       0.00000000       0.00000000       0.00000000
O        3.17723028       4.81790423       7.22598268  F       0.00000000       0.00000000       0.00000000
O        6.35447286       1.60596896       1.50000000  F       0.00000000       0.00000000       0.00000000
O        7.94309377       2.83875127       6.08591528  F       0.00000000       0.00000000       0.00000000
O        6.35447101       4.81790868       7.22598243  F       0.00000000       0.00000000       0.00000000
O        6.35447286       4.81790689       4.71193793  F       0.00000000       0.00000000       0.00000000
O        7.94299838       3.66406735       9.54111300  T       0.00000000       0.00000000       0.00000000
O        7.94293180       6.12518465       8.91965364  T       0.00000000       0.00000000       0.00000000
O        0.00000338      11.24178289       7.22597220  F       0.00000000       0.00000000       0.00000000
O        1.58879668       6.12510220       8.91882191  T       0.00000000       0.00000000       0.00000000
O        1.58771689       3.66535131       9.54271016  T       0.00000000       0.00000000       0.00000000
O        0.00000000       4.81790689       4.71193793  F       0.00000000       0.00000000       0.00000000
O        1.58554824      12.54963168       8.91931752  T       0.00000000       0.00000000       0.00000000
O       -0.00175374       7.86329052      10.39390092  T       0.00000000       0.00000000       0.00000000
O       -0.00688131      11.59069687      11.22334666  T       0.00000000       0.00000000       0.00000000
O        4.76585465       6.05142216       2.73351527  F       0.00000000       0.00000000       0.00000000
O        9.53051008       8.31419275       7.94315286  T       0.00000000       0.00000000       0.00000000
O        3.17723643       1.60596896       3.96703054  F       0.00000000       0.00000000       0.00000000
O        9.51628943      11.25266537      13.78726968  T       0.00000000       0.00000000       0.00000000
O        1.59317654       9.42617575      12.53454973  T       0.00000000       0.00000000       0.00000000
O        4.76585465       3.58439162       2.73351527  F       0.00000000       0.00000000       0.00000000
O        1.58683497       6.99412889      12.76858921  T       0.00000000       0.00000000       0.00000000
O        3.17723643       1.60596896       1.50000000  F       0.00000000       0.00000000       0.00000000
O        0.00000000       8.02984482       3.96703054  F       0.00000000       0.00000000       0.00000000
O        1.58676369      10.08732250       9.53143489  T       0.00000000       0.00000000       0.00000000
O        0.00000000      11.24178275       4.71193793  F       0.00000000       0.00000000       0.00000000
O        1.58861822       3.58439162       2.73351527  F       0.00000000       0.00000000       0.00000000
O        1.58861822       6.05142216       2.73351527  F       0.00000000       0.00000000       0.00000000
O        0.00000000       1.60596896       3.96703054  F       0.00000000       0.00000000       0.00000000
O        0.00000000       1.60596896       1.50000000  F       0.00000000       0.00000000       0.00000000
O        1.58861510       0.37317604       6.08592568  F       0.00000000       0.00000000       0.00000000
O        1.58861475       2.83876150       6.08591621  F       0.00000000       0.00000000       0.00000000
O        0.00000677       4.81790638       7.22598148  F       0.00000000       0.00000000       0.00000000
O        6.35450845       1.44399926      10.41310246  T       0.00000000       0.00000000       0.00000000
O        6.35350197       1.88902133       7.95091299  T       0.00000000       0.00000000       0.00000000
O       -0.00209697       1.42344832      10.39726125  T       0.00000000       0.00000000       0.00000000
O        7.94364975       3.01201946      12.54315299  T       0.00000000       0.00000000       0.00000000
O        4.76244162       0.58130435      12.78684048  T       0.00000000       0.00000000       0.00000000
O        4.76264952       3.01214688      12.54923514  T       0.00000000       0.00000000       0.00000000
O        3.17369310       4.90963686      13.69124990  T       0.00000000       0.00000000       0.00000000
O        6.34310502      11.33777575      13.68993484  T       0.00000000       0.00000000       0.00000000
O        4.76585465      10.00826748       2.73351527  F       0.00000000       0.00000000       0.00000000
O        4.76585465      12.47529802       2.73351527  F       0.00000000       0.00000000       0.00000000
O        3.17723643       8.02984482       3.96703054  F       0.00000000       0.00000000       0.00000000
O        3.17723643       8.02984482       1.50000000  F       0.00000000       0.00000000       0.00000000
O        4.76583213       9.26262741       6.08592309  F       0.00000000       0.00000000       0.00000000
O        3.17722243      11.24178386       7.22601453  F       0.00000000       0.00000000       0.00000000
O        3.17723643      11.24178275       4.71193793  F       0.00000000       0.00000000       0.00000000
O        4.76475553      10.09378385       9.53334574  T       0.00000000       0.00000000       0.00000000
O        4.76386280      12.55227992       8.92405121  T       0.00000000       0.00000000       0.00000000
O        3.17755534       7.86507468      10.40393728  T       0.00000000       0.00000000       0.00000000
O        3.17812242       8.31578347       7.94426424  T       0.00000000       0.00000000       0.00000000
O        4.76247769       6.99424061      12.77785050  T       0.00000000       0.00000000       0.00000000
O        4.76204399       9.42956860      12.55115341  T       0.00000000       0.00000000       0.00000000
O        3.17327077      11.34247783      13.69281604  T       0.00000000       0.00000000       0.00000000
O        3.16717187      11.65021961      11.20865935  T       0.00000000       0.00000000       0.00000000
O        7.94309108       3.58439162       2.73351527  F       0.00000000       0.00000000       0.00000000
O        7.94251869       0.57228508      12.78052157  T       0.00000000       0.00000000       0.00000000
O        3.17760857       1.88764694       7.94844036  T       0.00000000       0.00000000       0.00000000
O        3.17602452       1.45208638      10.41291489  T       0.00000000       0.00000000       0.00000000
O        4.76583238       6.79706024       6.08593407  F       0.00000000       0.00000000       0.00000000
O        6.35716779       4.90730846      13.69104670  T       0.00000000       0.00000000       0.00000000
O        4.76515803       6.12396088       8.91892515  T       0.00000000       0.00000000       0.00000000
O        6.35319099       5.21805955      11.20830562  T       0.00000000       0.00000000       0.00000000
O        7.94309108      10.00826748       2.73351527  F       0.00000000       0.00000000       0.00000000
O        7.94309108      12.47529802       2.73351527  F       0.00000000       0.00000000       0.00000000
O        6.35447286       8.02984482       3.96703054  F       0.00000000       0.00000000       0.00000000
O        6.35447286       8.02984482       1.50000000  F       0.00000000       0.00000000       0.00000000
O        7.94309077       6.79706319       6.08592610  F       0.00000000       0.00000000       0.00000000
O        6.35446208      11.24178289       7.22597601  F       0.00000000       0.00000000       0.00000000
O        6.35447286      11.24178275       4.71193793  F       0.00000000       0.00000000       0.00000000
O        7.93907265      10.08914901       9.52653815  T       0.00000000       0.00000000       0.00000000
O        7.94309115       9.26262662       6.08591614  F       0.00000000       0.00000000       0.00000000
O        6.35184527       7.86309648      10.40049311  T       0.00000000       0.00000000       0.00000000
O        4.76670558       3.66594710       9.54249044  T       0.00000000       0.00000000       0.00000000
O        7.94218284      12.55048479       8.92256338  T       0.00000000       0.00000000       0.00000000
O        3.17723643       4.81790689       4.71193793  F       0.00000000       0.00000000       0.00000000
O        6.35447286       1.60596896       3.96703054  F       0.00000000       0.00000000       0.00000000
O        7.94309701       0.37317906       6.08592278  F       0.00000000       0.00000000       0.00000000
O        7.94309108       6.05142216       2.73351527  F       0.00000000       0.00000000       0.00000000
O        7.93996810       6.99067644      12.76758996  T       0.00000000       0.00000000       0.00000000
O        6.35211717       8.31758918       7.94333617  T       0.00000000       0.00000000       0.00000000
O        7.93103377       9.42238860      12.52347873  T       0.00000000       0.00000000       0.00000000
Pd       4.76586017      11.24177762       5.96678586  F       0.00000000       0.00000000       0.00000000
Pd       4.75970208      11.43596482      12.46752999  T       0.00000000       0.00000000       0.00000000
Pd       3.17801674       8.19253827      12.37275593  T       0.00000000       0.00000000       0.00000000
Pd       1.61941777      11.42634856      12.44978082  T       0.00000000       0.00000000       0.00000000
Pd       3.17725104       8.02984249       5.93124939  F       0.00000000       0.00000000       0.00000000
Pd       9.53167951       8.02984246       5.93125040  F       0.00000000       0.00000000       0.00000000
Pd       7.94309108       1.60596896       2.73351527  F       0.00000000       0.00000000       0.00000000
Pd       6.35447286       4.81790689       2.73351527  F       0.00000000       0.00000000       0.00000000
Pd       1.58862042      11.24178075       5.96678264  F       0.00000000       0.00000000       0.00000000
Pd       9.52920254       8.18802192      12.35718414  T       0.00000000       0.00000000       0.00000000
Pd       6.34975326       1.78475509      12.38734890  T       0.00000000       0.00000000       0.00000000
Pd       6.35446907       1.60596427       5.93125186  F       0.00000000       0.00000000       0.00000000
Pd       0.00000000      11.24178275       2.73351527  F       0.00000000       0.00000000       0.00000000
Pd       1.58861822       8.02984482       2.73351527  F       0.00000000       0.00000000       0.00000000
Pd       7.94242347       1.68847827       9.17293130  T       0.00000000       0.00000000       0.00000000
Pd       6.35497128       4.90262845       9.23908090  T       0.00000000       0.00000000       0.00000000
Pd       3.17723643      11.24178275       2.73351527  F       0.00000000       0.00000000       0.00000000
Pd       4.76585465       8.02984482       2.73351527  F       0.00000000       0.00000000       0.00000000
Pd       9.52812088       1.79305209      12.35915736  T       0.00000000       0.00000000       0.00000000
Pd       4.76504364       8.11257022       9.16997777  T       0.00000000       0.00000000       0.00000000
Pd       1.58927976       8.11149829       9.16822997  T       0.00000000       0.00000000       0.00000000
Pd       7.94307467       4.81790887       5.96677722  F       0.00000000       0.00000000       0.00000000
Pd       9.52925818      11.32733174       9.23771437  T       0.00000000       0.00000000       0.00000000
Pd       9.53168699       4.90362290       9.23780147  T       0.00000000       0.00000000       0.00000000
Pd       7.94173955       5.00657838      12.45716316  T       0.00000000       0.00000000       0.00000000
Pd       4.76585465       1.60596896       2.73351527  F       0.00000000       0.00000000       0.00000000
Pd       4.76489278       5.00785651      12.46188229  T       0.00000000       0.00000000       0.00000000
Pd       7.94307042      11.24177723       5.96677003  F       0.00000000       0.00000000       0.00000000
Pd       6.35446228       8.02984189       5.93125037  F       0.00000000       0.00000000       0.00000000
Pd       6.35447286      11.24178275       2.73351527  F       0.00000000       0.00000000       0.00000000
Pd       7.94309108       8.02984482       2.73351527  F       0.00000000       0.00000000       0.00000000
Pd       3.17645061       1.78885565      12.38569897  T       0.00000000       0.00000000       0.00000000
Pd       1.58783194       1.68869641       9.17224979  T       0.00000000       0.00000000       0.00000000
Pd       3.17222865      11.32766506       9.22815807  T       0.00000000       0.00000000       0.00000000
Pd       7.94007374       8.11193013       9.16698345  T       0.00000000       0.00000000       0.00000000
Pd       6.35324350      11.32929896       9.23098180  T       0.00000000       0.00000000       0.00000000
Pd       1.58861839       4.81790857       5.96677563  F       0.00000000       0.00000000       0.00000000
Pd       4.76586828       4.81790686       5.96677661  F       0.00000000       0.00000000       0.00000000
Pd       3.17747288       4.90368402       9.23932363  T       0.00000000       0.00000000       0.00000000
Pd       4.76560033       1.69073024       9.17888574  T       0.00000000       0.00000000       0.00000000
Pd       7.89748751      11.42372262      12.44745714  T       0.00000000       0.00000000       0.00000000
Pd       6.34773405       8.19173915      12.37117972  T       0.00000000       0.00000000       0.00000000
Pd       3.17725665       1.60596829       5.93125128  F       0.00000000       0.00000000       0.00000000
Pd       0.00000000       4.81790689       2.73351527  F       0.00000000       0.00000000       0.00000000
Pd       9.53168164       1.60596920       5.93125239  F       0.00000000       0.00000000       0.00000000
Pd       3.17723643       4.81790689       2.73351527  F       0.00000000       0.00000000       0.00000000
Pd       1.58713763       5.00803307      12.46095139  T       0.00000000       0.00000000       0.00000000
Pd       1.58861822       1.60596896       2.73351527  F       0.00000000       0.00000000       0.00000000
O        2.60285274       1.49084344      16.60525309  T       0.00000000       0.00000000       0.00000000
C        1.61169831       1.16452419      15.97786100  T       0.00000000       0.00000000       0.00000000
H        1.02003837       0.24743244      16.24992760  T       0.00000000       0.00000000       0.00000000
H        1.23518895       1.75431118      15.10335366  T       0.00000000       0.00000000       0.00000000
H       -0.04048921      -0.77500374      14.32206797  T       0.00000000       0.00000000       0.00000000
