149
Lattice="9.531709292017604 0.0 0.0 0.0 12.847751714415933 0.0 0.0 0.0 32.10284432209217" Properties=species:S:1:pos:R:3:move_mask:L:1:momenta:R:3 adsorbate_info="_JSON {\"site\": {\"coordinates\": [7.943085858500046, 4.150254836051973, 13.321271656623992], \"connectivity\": 3, \"topology\": [3, 49, 74], \"n_vector\": [0.0009660442765985677, -0.37161834323246373, 0.9283850891368379], \"h_vector\": [-0.5788163381936654, -0.7297786239526552, -0.36386097161119857], \"site_formula\": {\"O\": 3}}, \"smiles\": \"ClOC\", \"mdf\": 2.1796162738959577, \"adsorbate_formula\": \"CH3O\"}" mace_E=-765.087176635826 converged=T n_steps=92 d_min=1.9813789213518516 site_type=unknown dE_rel_meV=0 original_idx=302 rank=192 E_MACE=-764.9176309492618 pbc="T T T"
O        3.17631486       5.20979052      11.20605448  T       0.00000000       0.00000000       0.00000000
O        1.58877247       0.54814915      12.76518856  T       0.00000000       0.00000000       0.00000000
O        1.58660582       2.98539125      12.54801003  T       0.00000000       0.00000000       0.00000000
O        9.54326163       4.88876945      13.69366131  T       0.00000000       0.00000000       0.00000000
O       -0.00482771       5.21282867      11.20086775  T       0.00000000       0.00000000       0.00000000
O        1.58861822      10.00826748       2.73351527  F       0.00000000       0.00000000       0.00000000
O        1.58861822      12.47529802       2.73351527  F       0.00000000       0.00000000       0.00000000
O        4.76584344       2.83874884       6.08591509  F       0.00000000       0.00000000       0.00000000
O        0.00000000       8.02984482       1.50000000  F       0.00000000       0.00000000       0.00000000
O        1.58861107       6.79705424       6.08592811  F       0.00000000       0.00000000       0.00000000
O        9.53073595       1.89105844       7.94500356  T       0.00000000       0.00000000       0.00000000
O        1.58861150       9.26263623       6.08591827  F       0.00000000       0.00000000       0.00000000
O        4.76583598       0.37317881       6.08593111  F       0.00000000       0.00000000       0.00000000
O        6.35231550      11.63247389      11.20331429  T       0.00000000       0.00000000       0.00000000
O        3.17723028       4.81790423       7.22598268  F       0.00000000       0.00000000       0.00000000
O        6.35447286       1.60596896       1.50000000  F       0.00000000       0.00000000       0.00000000
O        7.94309377       2.83875127       6.08591528  F       0.00000000       0.00000000       0.00000000
O        6.35447101       4.81790868       7.22598243  F       0.00000000       0.00000000       0.00000000
O        6.35447286       4.81790689       4.71193793  F       0.00000000       0.00000000       0.00000000
O        7.94237548       3.66407328       9.53586264  T       0.00000000       0.00000000       0.00000000
O        7.93670357       6.12606430       8.92567783  T       0.00000000       0.00000000       0.00000000
O        0.00000338      11.24178289       7.22597220  F       0.00000000       0.00000000       0.00000000
O        1.58659787       6.12651274       8.92183054  T       0.00000000       0.00000000       0.00000000
O        1.58563373       3.66891670       9.52976159  T       0.00000000       0.00000000       0.00000000
O        0.00000000       4.81790689       4.71193793  F       0.00000000       0.00000000       0.00000000
O        1.58727610      12.55027655       8.92150104  T       0.00000000       0.00000000       0.00000000
O       -0.00123374       7.86096980      10.40142366  T       0.00000000       0.00000000       0.00000000
O       -0.00180921      11.63366490      11.20150084  T       0.00000000       0.00000000       0.00000000
O        4.76585465       6.05142216       2.73351527  F       0.00000000       0.00000000       0.00000000
O        9.53051089       8.31843148       7.94598474  T       0.00000000       0.00000000       0.00000000
O        3.17723643       1.60596896       3.96703054  F       0.00000000       0.00000000       0.00000000
O        9.52915880      11.30345161      13.67701835  T       0.00000000       0.00000000       0.00000000
O        1.58505289       9.41354250      12.53066978  T       0.00000000       0.00000000       0.00000000
O        4.76585465       3.58439162       2.73351527  F       0.00000000       0.00000000       0.00000000
O        1.58518845       6.98206502      12.76814711  T       0.00000000       0.00000000       0.00000000
O        3.17723643       1.60596896       1.50000000  F       0.00000000       0.00000000       0.00000000
O        0.00000000       8.02984482       3.96703054  F       0.00000000       0.00000000       0.00000000
O        1.58743091      10.09056656       9.53341276  T       0.00000000       0.00000000       0.00000000
O        0.00000000      11.24178275       4.71193793  F       0.00000000       0.00000000       0.00000000
O        1.58861822       3.58439162       2.73351527  F       0.00000000       0.00000000       0.00000000
O        1.58861822       6.05142216       2.73351527  F       0.00000000       0.00000000       0.00000000
O        0.00000000       1.60596896       3.96703054  F       0.00000000       0.00000000       0.00000000
O        0.00000000       1.60596896       1.50000000  F       0.00000000       0.00000000       0.00000000
O        1.58861510       0.37317604       6.08592568  F       0.00000000       0.00000000       0.00000000
O        1.58861475       2.83876150       6.08591621  F       0.00000000       0.00000000       0.00000000
O        0.00000677       4.81790638       7.22598148  F       0.00000000       0.00000000       0.00000000
O        6.35317481       1.44591754      10.39823791  T       0.00000000       0.00000000       0.00000000
O        6.35348493       1.88968600       7.94337048  T       0.00000000       0.00000000       0.00000000
O       -0.00200921       1.44257379      10.40182224  T       0.00000000       0.00000000       0.00000000
O        7.95036506       2.98025192      12.54246981  T       0.00000000       0.00000000       0.00000000
O        4.76364244       0.54960716      12.76922693  T       0.00000000       0.00000000       0.00000000
O        4.75377591       2.98320172      12.54169741  T       0.00000000       0.00000000       0.00000000
O        3.15051103       4.88247260      13.69656776  T       0.00000000       0.00000000       0.00000000
O        6.35447089      11.29852096      13.67834124  T       0.00000000       0.00000000       0.00000000
O        4.76585465      10.00826748       2.73351527  F       0.00000000       0.00000000       0.00000000
O        4.76585465      12.47529802       2.73351527  F       0.00000000       0.00000000       0.00000000
O        3.17723643       8.02984482       3.96703054  F       0.00000000       0.00000000       0.00000000
O        3.17723643       8.02984482       1.50000000  F       0.00000000       0.00000000       0.00000000
O        4.76583213       9.26262741       6.08592309  F       0.00000000       0.00000000       0.00000000
O        3.17722243      11.24178386       7.22601453  F       0.00000000       0.00000000       0.00000000
O        3.17723643      11.24178275       4.71193793  F       0.00000000       0.00000000       0.00000000
O        4.76470935      10.08895513       9.53803148  T       0.00000000       0.00000000       0.00000000
O        4.76403702      12.54897260       8.92168771  T       0.00000000       0.00000000       0.00000000
O        3.17521037       7.85913479      10.39966652  T       0.00000000       0.00000000       0.00000000
O        3.17570865       8.31908666       7.94457832  T       0.00000000       0.00000000       0.00000000
O        4.75327391       6.98137145      12.76655603  T       0.00000000       0.00000000       0.00000000
O        4.76418997       9.41488738      12.53727786  T       0.00000000       0.00000000       0.00000000
O        3.17484084      11.29699549      13.67533628  T       0.00000000       0.00000000       0.00000000
O        3.17538771      11.63566335      11.20180545  T       0.00000000       0.00000000       0.00000000
O        7.94309108       3.58439162       2.73351527  F       0.00000000       0.00000000       0.00000000
O        7.94094875       0.54813761      12.76849093  T       0.00000000       0.00000000       0.00000000
O        3.17482353       1.88945854       7.94517232  T       0.00000000       0.00000000       0.00000000
O        3.17497147       1.44268106      10.40372647  T       0.00000000       0.00000000       0.00000000
O        4.76583238       6.79706024       6.08593407  F       0.00000000       0.00000000       0.00000000
O        6.34972637       4.99517883      13.84300620  T       0.00000000       0.00000000       0.00000000
O        4.76731157       6.12496848       8.92537638  T       0.00000000       0.00000000       0.00000000
O        6.34402728       5.16121206      11.24890788  T       0.00000000       0.00000000       0.00000000
O        7.94309108      10.00826748       2.73351527  F       0.00000000       0.00000000       0.00000000
O        7.94309108      12.47529802       2.73351527  F       0.00000000       0.00000000       0.00000000
O        6.35447286       8.02984482       3.96703054  F       0.00000000       0.00000000       0.00000000
O        6.35447286       8.02984482       1.50000000  F       0.00000000       0.00000000       0.00000000
O        7.94309077       6.79706319       6.08592610  F       0.00000000       0.00000000       0.00000000
O        6.35446208      11.24178289       7.22597601  F       0.00000000       0.00000000       0.00000000
O        6.35447286      11.24178275       4.71193793  F       0.00000000       0.00000000       0.00000000
O        7.94086638      10.09010291       9.53570201  T       0.00000000       0.00000000       0.00000000
O        7.94309115       9.26262662       6.08591614  F       0.00000000       0.00000000       0.00000000
O        6.35204567       7.84657470      10.39665005  T       0.00000000       0.00000000       0.00000000
O        4.76186793       3.66328936       9.53401845  T       0.00000000       0.00000000       0.00000000
O        7.94159886      12.54955627       8.92166207  T       0.00000000       0.00000000       0.00000000
O        3.17723643       4.81790689       4.71193793  F       0.00000000       0.00000000       0.00000000
O        6.35447286       1.60596896       3.96703054  F       0.00000000       0.00000000       0.00000000
O        7.94309701       0.37317906       6.08592278  F       0.00000000       0.00000000       0.00000000
O        7.94309108       6.05142216       2.73351527  F       0.00000000       0.00000000       0.00000000
O        7.94414840       6.97798436      12.76700986  T       0.00000000       0.00000000       0.00000000
O        6.35377311       8.31981762       7.94429794  T       0.00000000       0.00000000       0.00000000
O        7.94060807       9.41414479      12.53513395  T       0.00000000       0.00000000       0.00000000
Pd       4.76586017      11.24177762       5.96678586  F       0.00000000       0.00000000       0.00000000
Pd       4.76384167      11.41155198      12.44956372  T       0.00000000       0.00000000       0.00000000
Pd       3.17370639       8.18826243      12.36720597  T       0.00000000       0.00000000       0.00000000
Pd       1.58624311      11.41000906      12.44697299  T       0.00000000       0.00000000       0.00000000
Pd       3.17725104       8.02984249       5.93124939  F       0.00000000       0.00000000       0.00000000
Pd       9.53167951       8.02984246       5.93125040  F       0.00000000       0.00000000       0.00000000
Pd       7.94309108       1.60596896       2.73351527  F       0.00000000       0.00000000       0.00000000
Pd       6.35447286       4.81790689       2.73351527  F       0.00000000       0.00000000       0.00000000
Pd       1.58862042      11.24178075       5.96678264  F       0.00000000       0.00000000       0.00000000
Pd       9.52938208       8.18664168      12.36865794  T       0.00000000       0.00000000       0.00000000
Pd       6.35256892       1.75148140      12.36747617  T       0.00000000       0.00000000       0.00000000
Pd       6.35446907       1.60596427       5.93125186  F       0.00000000       0.00000000       0.00000000
Pd       0.00000000      11.24178275       2.73351527  F       0.00000000       0.00000000       0.00000000
Pd       1.58861822       8.02984482       2.73351527  F       0.00000000       0.00000000       0.00000000
Pd       7.94213212       1.68737716       9.16934518  T       0.00000000       0.00000000       0.00000000
Pd       6.35190957       4.90058642       9.24917286  T       0.00000000       0.00000000       0.00000000
Pd       3.17723643      11.24178275       2.73351527  F       0.00000000       0.00000000       0.00000000
Pd       4.76585465       8.02984482       2.73351527  F       0.00000000       0.00000000       0.00000000
Pd       9.53265782       1.74721088      12.37332798  T       0.00000000       0.00000000       0.00000000
Pd       4.76463581       8.11249868       9.16877935  T       0.00000000       0.00000000       0.00000000
Pd       1.58723898       8.11371003       9.16975935  T       0.00000000       0.00000000       0.00000000
Pd       7.94307467       4.81790887       5.96677722  F       0.00000000       0.00000000       0.00000000
Pd       9.53030166      11.32736903       9.23374282  T       0.00000000       0.00000000       0.00000000
Pd       9.52599999       4.90238399       9.22824753  T       0.00000000       0.00000000       0.00000000
Pd       7.98111693       4.97953567      12.46224876  T       0.00000000       0.00000000       0.00000000
Pd       4.76585465       1.60596896       2.73351527  F       0.00000000       0.00000000       0.00000000
Pd       4.71224660       4.98113764      12.46634326  T       0.00000000       0.00000000       0.00000000
Pd       7.94307042      11.24177723       5.96677003  F       0.00000000       0.00000000       0.00000000
Pd       6.35446228       8.02984189       5.93125037  F       0.00000000       0.00000000       0.00000000
Pd       6.35447286      11.24178275       2.73351527  F       0.00000000       0.00000000       0.00000000
Pd       7.94309108       8.02984482       2.73351527  F       0.00000000       0.00000000       0.00000000
Pd       3.17444008       1.75139225      12.37256451  T       0.00000000       0.00000000       0.00000000
Pd       1.58646624       1.68933939       9.17173618  T       0.00000000       0.00000000       0.00000000
Pd       3.17611925      11.32704376       9.23446516  T       0.00000000       0.00000000       0.00000000
Pd       7.94107029       8.11313223       9.17049197  T       0.00000000       0.00000000       0.00000000
Pd       6.35262095      11.32686696       9.23510274  T       0.00000000       0.00000000       0.00000000
Pd       1.58861839       4.81790857       5.96677563  F       0.00000000       0.00000000       0.00000000
Pd       4.76586828       4.81790686       5.96677661  F       0.00000000       0.00000000       0.00000000
Pd       3.17766846       4.90187584       9.22836960  T       0.00000000       0.00000000       0.00000000
Pd       4.76370324       1.68728557       9.16949383  T       0.00000000       0.00000000       0.00000000
Pd       7.94152847      11.41034213      12.44850115  T       0.00000000       0.00000000       0.00000000
Pd       6.35072133       8.19198870      12.35959096  T       0.00000000       0.00000000       0.00000000
Pd       3.17725665       1.60596829       5.93125128  F       0.00000000       0.00000000       0.00000000
Pd       0.00000000       4.81790689       2.73351527  F       0.00000000       0.00000000       0.00000000
Pd       9.53168164       1.60596920       5.93125239  F       0.00000000       0.00000000       0.00000000
Pd       3.17723643       4.81790689       2.73351527  F       0.00000000       0.00000000       0.00000000
Pd       1.58363269       4.98760047      12.45950892  T       0.00000000       0.00000000       0.00000000
Pd       1.58861822       1.60596896       2.73351527  F       0.00000000       0.00000000       0.00000000
O        6.30339714       3.89045045      14.75907081  T       0.00000000       0.00000000       0.00000000
C        7.18397153       4.24151834      15.85798430  T       0.00000000       0.00000000       0.00000000
H        7.09874234       3.38230623      16.53868238  T       0.00000000       0.00000000       0.00000000
H        8.21822131       4.36568954      15.49246377  T       0.00000000       0.00000000       0.00000000
H        6.82862381       5.16328133      16.34818765  T       0.00000000       0.00000000       0.00000000
