149
Lattice="9.531709292017604 0.0 0.0 0.0 12.847751714415933 0.0 0.0 0.0 32.10284432209217" Properties=species:S:1:pos:R:3:move_mask:L:1:momenta:R:3 adsorbate_info="_JSON {\"site\": {\"coordinates\": [5.560153734773271, 5.819389577598496, 13.154830319261936], \"connectivity\": 2, \"topology\": [65, 74], \"n_vector\": [-0.03625101949494523, 0.4158530286607414, 0.9087090415194875], \"h_vector\": [0.5788145207097756, -0.7297811695687033, 0.3638587571550922], \"site_formula\": {\"O\": 2}}, \"smiles\": \"ClOC\", \"mdf\": 2.0421443479671524, \"adsorbate_formula\": \"CH3O\"}" mace_E=-764.423069349004 converged=T n_steps=200 d_min=0.9837986217078977 site_type=unknown dE_rel_meV=0 original_idx=216 rank=8 E_MACE=-767.256522247316 pbc="T T T"
O        3.17621148       4.43718575      11.19928869  T       0.00000000       0.00000000       0.00000000
O        1.59213611       0.31010460      12.51515045  T       0.00000000       0.00000000       0.00000000
O        1.59400243       2.75112300      12.79749183  T       0.00000000       0.00000000       0.00000000
O        9.52414108       4.95202764      13.65868867  T       0.00000000       0.00000000       0.00000000
O        0.00246324       4.43892435      11.20080778  T       0.00000000       0.00000000       0.00000000
O        1.58861822      10.00826748       2.73351527  F       0.00000000       0.00000000       0.00000000
O        1.58861822      12.47529802       2.73351527  F       0.00000000       0.00000000       0.00000000
O        4.76584344       2.83874884       6.08591509  F       0.00000000       0.00000000       0.00000000
O        0.00000000       8.02984482       1.50000000  F       0.00000000       0.00000000       0.00000000
O        1.58861107       6.79705424       6.08592811  F       0.00000000       0.00000000       0.00000000
O        9.53389702       1.33738211       7.94883964  T       0.00000000       0.00000000       0.00000000
O        1.58861150       9.26263623       6.08591827  F       0.00000000       0.00000000       0.00000000
O        4.76583598       0.37317881       6.08593111  F       0.00000000       0.00000000       0.00000000
O        6.35476717      10.89133799      11.22363599  T       0.00000000       0.00000000       0.00000000
O        3.17723028       4.81790423       7.22598268  F       0.00000000       0.00000000       0.00000000
O        6.35447286       1.60596896       1.50000000  F       0.00000000       0.00000000       0.00000000
O        7.94309377       2.83875127       6.08591528  F       0.00000000       0.00000000       0.00000000
O        6.35447101       4.81790868       7.22598243  F       0.00000000       0.00000000       0.00000000
O        6.35447286       4.81790689       4.71193793  F       0.00000000       0.00000000       0.00000000
O        7.94572030       3.54298186       8.91729325  T       0.00000000       0.00000000       0.00000000
O        7.94168137       6.00499354       9.47903497  T       0.00000000       0.00000000       0.00000000
O        0.00000338      11.24178289       7.22597220  F       0.00000000       0.00000000       0.00000000
O        1.58939856       6.01030887       9.53361096  T       0.00000000       0.00000000       0.00000000
O        1.58998324       3.54405390       8.92345876  T       0.00000000       0.00000000       0.00000000
O        0.00000000       4.81790689       4.71193793  F       0.00000000       0.00000000       0.00000000
O        1.58880923      12.43332914       9.54262347  T       0.00000000       0.00000000       0.00000000
O       -0.00764839       8.30394795      10.39239826  T       0.00000000       0.00000000       0.00000000
O       -0.00028473      10.90041427      11.22262202  T       0.00000000       0.00000000       0.00000000
O        4.76585465       6.05142216       2.73351527  F       0.00000000       0.00000000       0.00000000
O        9.52966894       7.76476257       7.95062649  T       0.00000000       0.00000000       0.00000000
O        3.17723643       1.60596896       3.96703054  F       0.00000000       0.00000000       0.00000000
O        9.52891941      11.30736564      13.69436359  T       0.00000000       0.00000000       0.00000000
O        1.58990273       9.15016050      12.84978858  T       0.00000000       0.00000000       0.00000000
O        4.76585465       3.58439162       2.73351527  F       0.00000000       0.00000000       0.00000000
O        1.58904119       6.73630096      12.39538019  T       0.00000000       0.00000000       0.00000000
O        3.17723643       1.60596896       1.50000000  F       0.00000000       0.00000000       0.00000000
O        0.00000000       8.02984482       3.96703054  F       0.00000000       0.00000000       0.00000000
O        1.58838738       9.97826297       8.91636721  T       0.00000000       0.00000000       0.00000000
O        0.00000000      11.24178275       4.71193793  F       0.00000000       0.00000000       0.00000000
O        1.58861822       3.58439162       2.73351527  F       0.00000000       0.00000000       0.00000000
O        1.58861822       6.05142216       2.73351527  F       0.00000000       0.00000000       0.00000000
O        0.00000000       1.60596896       3.96703054  F       0.00000000       0.00000000       0.00000000
O        0.00000000       1.60596896       1.50000000  F       0.00000000       0.00000000       0.00000000
O        1.58861510       0.37317604       6.08592568  F       0.00000000       0.00000000       0.00000000
O        1.58861475       2.83876150       6.08591621  F       0.00000000       0.00000000       0.00000000
O        0.00000677       4.81790638       7.22598148  F       0.00000000       0.00000000       0.00000000
O        6.35815664       1.82606660      10.40553692  T       0.00000000       0.00000000       0.00000000
O        6.35683225       1.33631355       7.95000536  T       0.00000000       0.00000000       0.00000000
O        0.00277628       1.82676498      10.40507873  T       0.00000000       0.00000000       0.00000000
O        7.94369381       2.75860768      12.81297955  T       0.00000000       0.00000000       0.00000000
O        4.77302540       0.30677110      12.52162118  T       0.00000000       0.00000000       0.00000000
O        4.77175600       2.75902570      12.81211023  T       0.00000000       0.00000000       0.00000000
O        3.19022196       4.96118356      13.65822047  T       0.00000000       0.00000000       0.00000000
O        6.35470630      11.29925344      13.70214768  T       0.00000000       0.00000000       0.00000000
O        4.76585465      10.00826748       2.73351527  F       0.00000000       0.00000000       0.00000000
O        4.76585465      12.47529802       2.73351527  F       0.00000000       0.00000000       0.00000000
O        3.17723643       8.02984482       3.96703054  F       0.00000000       0.00000000       0.00000000
O        3.17723643       8.02984482       1.50000000  F       0.00000000       0.00000000       0.00000000
O        4.76583213       9.26262741       6.08592309  F       0.00000000       0.00000000       0.00000000
O        3.17722243      11.24178386       7.22601453  F       0.00000000       0.00000000       0.00000000
O        3.17723643      11.24178275       4.71193793  F       0.00000000       0.00000000       0.00000000
O        4.76556980       9.98032905       8.91750172  T       0.00000000       0.00000000       0.00000000
O        4.76635568      12.43272378       9.54298477  T       0.00000000       0.00000000       0.00000000
O        3.18504325       8.30027726      10.39204864  T       0.00000000       0.00000000       0.00000000
O        3.17815150       7.76290656       7.94939687  T       0.00000000       0.00000000       0.00000000
O        4.76742195       6.72964523      12.07064368  T       0.00000000       0.00000000       0.00000000
O        4.74795305       9.13271750      12.86624570  T       0.00000000       0.00000000       0.00000000
O        3.18122122      11.30423651      13.69625909  T       0.00000000       0.00000000       0.00000000
O        3.17852721      10.89915663      11.22288915  T       0.00000000       0.00000000       0.00000000
O        7.94309108       3.58439162       2.73351527  F       0.00000000       0.00000000       0.00000000
O        7.94285337       0.30867645      12.52156443  T       0.00000000       0.00000000       0.00000000
O        3.17924925       1.33645428       7.94961879  T       0.00000000       0.00000000       0.00000000
O        3.18053681       1.82338861      10.40513401  T       0.00000000       0.00000000       0.00000000
O        4.76583238       6.79706024       6.08593407  F       0.00000000       0.00000000       0.00000000
O        6.35538971       5.00602769      13.65317461  T       0.00000000       0.00000000       0.00000000
O        4.76752769       6.00429714       9.47789240  T       0.00000000       0.00000000       0.00000000
O        6.35664575       4.43764646      11.19310953  T       0.00000000       0.00000000       0.00000000
O        7.94309108      10.00826748       2.73351527  F       0.00000000       0.00000000       0.00000000
O        7.94309108      12.47529802       2.73351527  F       0.00000000       0.00000000       0.00000000
O        6.35447286       8.02984482       3.96703054  F       0.00000000       0.00000000       0.00000000
O        6.35447286       8.02984482       1.50000000  F       0.00000000       0.00000000       0.00000000
O        7.94309077       6.79706319       6.08592610  F       0.00000000       0.00000000       0.00000000
O        6.35446208      11.24178289       7.22597601  F       0.00000000       0.00000000       0.00000000
O        6.35447286      11.24178275       4.71193793  F       0.00000000       0.00000000       0.00000000
O        7.94233617       9.98039325       8.91354388  T       0.00000000       0.00000000       0.00000000
O        7.94309115       9.26262662       6.08591614  F       0.00000000       0.00000000       0.00000000
O        6.35265163       8.30335647      10.35273852  T       0.00000000       0.00000000       0.00000000
O        4.76589530       3.54229774       8.91657000  T       0.00000000       0.00000000       0.00000000
O        7.94394967      12.43284051       9.54390442  T       0.00000000       0.00000000       0.00000000
O        3.17723643       4.81790689       4.71193793  F       0.00000000       0.00000000       0.00000000
O        6.35447286       1.60596896       3.96703054  F       0.00000000       0.00000000       0.00000000
O        7.94309701       0.37317906       6.08592278  F       0.00000000       0.00000000       0.00000000
O        7.94309108       6.05142216       2.73351527  F       0.00000000       0.00000000       0.00000000
O        7.94608021       6.72886332      12.06454067  T       0.00000000       0.00000000       0.00000000
O        6.35402301       7.73683748       7.92993693  T       0.00000000       0.00000000       0.00000000
O        7.96296957       9.13676422      12.86119647  T       0.00000000       0.00000000       0.00000000
Pd       4.76586017      11.24177762       5.96678586  F       0.00000000       0.00000000       0.00000000
Pd       4.77040615      11.14237968      12.47686173  T       0.00000000       0.00000000       0.00000000
Pd       3.18390686       7.96046826      12.36751218  T       0.00000000       0.00000000       0.00000000
Pd       1.58939909      11.14668059      12.47532953  T       0.00000000       0.00000000       0.00000000
Pd       3.17725104       8.02984249       5.93124939  F       0.00000000       0.00000000       0.00000000
Pd       9.53167951       8.02984246       5.93125040  F       0.00000000       0.00000000       0.00000000
Pd       7.94309108       1.60596896       2.73351527  F       0.00000000       0.00000000       0.00000000
Pd       6.35447286       4.81790689       2.73351527  F       0.00000000       0.00000000       0.00000000
Pd       1.58862042      11.24178075       5.96678264  F       0.00000000       0.00000000       0.00000000
Pd       9.52713517       7.96162748      12.36501077  T       0.00000000       0.00000000       0.00000000
Pd       6.35828963       1.54863148      12.38311863  T       0.00000000       0.00000000       0.00000000
Pd       6.35446907       1.60596427       5.93125186  F       0.00000000       0.00000000       0.00000000
Pd       0.00000000      11.24178275       2.73351527  F       0.00000000       0.00000000       0.00000000
Pd       1.58861822       8.02984482       2.73351527  F       0.00000000       0.00000000       0.00000000
Pd       7.94596595       1.56081609       9.17548531  T       0.00000000       0.00000000       0.00000000
Pd       6.35515489       4.76620571       9.23172615  T       0.00000000       0.00000000       0.00000000
Pd       3.17723643      11.24178275       2.73351527  F       0.00000000       0.00000000       0.00000000
Pd       4.76585465       8.02984482       2.73351527  F       0.00000000       0.00000000       0.00000000
Pd       9.53323690       1.54562192      12.38114422  T       0.00000000       0.00000000       0.00000000
Pd       4.77829576       7.99837518       9.16288686  T       0.00000000       0.00000000       0.00000000
Pd       1.58862037       7.99460356       9.17388987  T       0.00000000       0.00000000       0.00000000
Pd       7.94307467       4.81790887       5.96677722  F       0.00000000       0.00000000       0.00000000
Pd       9.53233554      11.19768629       9.24458854  T       0.00000000       0.00000000       0.00000000
Pd       9.53511476       4.76840734       9.23435882  T       0.00000000       0.00000000       0.00000000
Pd       7.94538815       4.76239435      12.44148062  T       0.00000000       0.00000000       0.00000000
Pd       4.76585465       1.60596896       2.73351527  F       0.00000000       0.00000000       0.00000000
Pd       4.76799136       4.76368652      12.43871864  T       0.00000000       0.00000000       0.00000000
Pd       7.94307042      11.24177723       5.96677003  F       0.00000000       0.00000000       0.00000000
Pd       6.35446228       8.02984189       5.93125037  F       0.00000000       0.00000000       0.00000000
Pd       6.35447286      11.24178275       2.73351527  F       0.00000000       0.00000000       0.00000000
Pd       7.94309108       8.02984482       2.73351527  F       0.00000000       0.00000000       0.00000000
Pd       3.18448370       1.54445316      12.38050977  T       0.00000000       0.00000000       0.00000000
Pd       1.59095727       1.55973818       9.17568950  T       0.00000000       0.00000000       0.00000000
Pd       3.17631314      11.19765090       9.24489214  T       0.00000000       0.00000000       0.00000000
Pd       7.92914200       7.99913185       9.16407892  T       0.00000000       0.00000000       0.00000000
Pd       6.35452261      11.19653743       9.24438211  T       0.00000000       0.00000000       0.00000000
Pd       1.58861839       4.81790857       5.96677563  F       0.00000000       0.00000000       0.00000000
Pd       4.76586828       4.81790686       5.96677661  F       0.00000000       0.00000000       0.00000000
Pd       3.17520486       4.76801403       9.23432768  T       0.00000000       0.00000000       0.00000000
Pd       4.76873139       1.56040139       9.17579756  T       0.00000000       0.00000000       0.00000000
Pd       7.93942525      11.14458959      12.47567656  T       0.00000000       0.00000000       0.00000000
Pd       6.35660543       7.91340208      12.48987172  T       0.00000000       0.00000000       0.00000000
Pd       3.17725665       1.60596829       5.93125128  F       0.00000000       0.00000000       0.00000000
Pd       0.00000000       4.81790689       2.73351527  F       0.00000000       0.00000000       0.00000000
Pd       9.53168164       1.60596920       5.93125239  F       0.00000000       0.00000000       0.00000000
Pd       3.17723643       4.81790689       2.73351527  F       0.00000000       0.00000000       0.00000000
Pd       1.59070778       4.74098591      12.44287030  T       0.00000000       0.00000000       0.00000000
Pd       1.58861822       1.60596896       2.73351527  F       0.00000000       0.00000000       0.00000000
O        5.58271853       6.57909536      17.41301333  T       0.00000000       0.00000000       0.00000000
C        5.41014466       7.18266803      16.36572101  T       0.00000000       0.00000000       0.00000000
H        6.08410273       8.02576772      16.04803006  T       0.00000000       0.00000000       0.00000000
H        6.40713724       7.35015729      13.93094049  T       0.00000000       0.00000000       0.00000000
H        4.57348679       6.94025127      15.66137475  T       0.00000000       0.00000000       0.00000000
