149
Lattice="9.531709292017604 0.0 0.0 0.0 12.847751714415933 0.0 0.0 0.0 32.10284432209217" Properties=species:S:1:pos:R:3:move_mask:L:1:momenta:R:3 adsorbate_info="_JSON {\"site\": {\"coordinates\": [6.354464028437316, 11.241781845718823, 13.654158669272686], \"connectivity\": 1, \"topology\": [53], \"n_vector\": [-0.017770368393689128, 0.0035686437862944695, 0.9998357259013497], \"h_vector\": [1.0, 0.0, 0.0], \"site_formula\": {\"O\": 1}}, \"smiles\": \"ClOC\", \"mdf\": 1.7097869690905103, \"adsorbate_formula\": \"CH3O\"}" mace_E=-764.3293243851485 converged=T n_steps=24 d_min=0.9832073053921792 site_type=unknown dE_rel_meV=0 original_idx=251 rank=4 E_MACE=-767.2576626359828 pbc="T T T"
O        3.17922326       4.82417096      11.21190148  T       0.00000000       0.00000000       0.00000000
O        1.59379458       0.39512889      12.69126023  T       0.00000000       0.00000000       0.00000000
O        1.59388595       2.83858294      12.67858392  T       0.00000000       0.00000000       0.00000000
O        9.53338066       4.82418911      13.69653177  T       0.00000000       0.00000000       0.00000000
O        0.00138221       4.82086798      11.21189202  T       0.00000000       0.00000000       0.00000000
O        1.58861822      10.00826748       2.73351527  F       0.00000000       0.00000000       0.00000000
O        1.58861822      12.47529802       2.73351527  F       0.00000000       0.00000000       0.00000000
O        4.76584344       2.83874884       6.08591509  F       0.00000000       0.00000000       0.00000000
O        0.00000000       8.02984482       1.50000000  F       0.00000000       0.00000000       0.00000000
O        1.58861107       6.79705424       6.08592811  F       0.00000000       0.00000000       0.00000000
O        9.53284864       1.59984741       7.94329853  T       0.00000000       0.00000000       0.00000000
O        1.58861150       9.26263623       6.08591827  F       0.00000000       0.00000000       0.00000000
O        4.76583598       0.37317881       6.08593111  F       0.00000000       0.00000000       0.00000000
O        6.35644083      11.23066415      11.26505234  T       0.00000000       0.00000000       0.00000000
O        3.17723028       4.81790423       7.22598268  F       0.00000000       0.00000000       0.00000000
O        6.35447286       1.60596896       1.50000000  F       0.00000000       0.00000000       0.00000000
O        7.94309377       2.83875127       6.08591528  F       0.00000000       0.00000000       0.00000000
O        6.35447101       4.81790868       7.22598243  F       0.00000000       0.00000000       0.00000000
O        6.35447286       4.81790689       4.71193793  F       0.00000000       0.00000000       0.00000000
O        7.94318542       3.58440604       9.25583067  T       0.00000000       0.00000000       0.00000000
O        7.94308114       6.05434684       9.25087849  T       0.00000000       0.00000000       0.00000000
O        0.00000338      11.24178289       7.22597220  F       0.00000000       0.00000000       0.00000000
O        1.58844314       6.05295610       9.24904201  T       0.00000000       0.00000000       0.00000000
O        1.58937099       3.58659709       9.25775756  T       0.00000000       0.00000000       0.00000000
O        0.00000000       4.81790689       4.71193793  F       0.00000000       0.00000000       0.00000000
O        1.59002805      12.47693209       9.25065060  T       0.00000000       0.00000000       0.00000000
O        0.00231855       8.03403341      10.41671177  T       0.00000000       0.00000000       0.00000000
O        0.01732060      11.22700334      11.20396887  T       0.00000000       0.00000000       0.00000000
O        4.76585465       6.05142216       2.73351527  F       0.00000000       0.00000000       0.00000000
O        9.53156786       8.03579864       7.94537181  T       0.00000000       0.00000000       0.00000000
O        3.17723643       1.60596896       3.96703054  F       0.00000000       0.00000000       0.00000000
O        9.56645256      11.23684450      13.71104289  T       0.00000000       0.00000000       0.00000000
O        1.59436745       9.25228736      12.69468872  T       0.00000000       0.00000000       0.00000000
O        4.76585465       3.58439162       2.73351527  F       0.00000000       0.00000000       0.00000000
O        1.59183155       6.81211514      12.67843576  T       0.00000000       0.00000000       0.00000000
O        3.17723643       1.60596896       1.50000000  F       0.00000000       0.00000000       0.00000000
O        0.00000000       8.02984482       3.96703054  F       0.00000000       0.00000000       0.00000000
O        1.59025492      10.01082325       9.24079589  T       0.00000000       0.00000000       0.00000000
O        0.00000000      11.24178275       4.71193793  F       0.00000000       0.00000000       0.00000000
O        1.58861822       3.58439162       2.73351527  F       0.00000000       0.00000000       0.00000000
O        1.58861822       6.05142216       2.73351527  F       0.00000000       0.00000000       0.00000000
O        0.00000000       1.60596896       3.96703054  F       0.00000000       0.00000000       0.00000000
O        0.00000000       1.60596896       1.50000000  F       0.00000000       0.00000000       0.00000000
O        1.58861510       0.37317604       6.08592568  F       0.00000000       0.00000000       0.00000000
O        1.58861475       2.83876150       6.08591621  F       0.00000000       0.00000000       0.00000000
O        0.00000677       4.81790638       7.22598148  F       0.00000000       0.00000000       0.00000000
O        6.35461303       1.58597576      10.40365480  T       0.00000000       0.00000000       0.00000000
O        6.35423837       1.59826758       7.94099060  T       0.00000000       0.00000000       0.00000000
O        0.00216743       1.59703625      10.41202622  T       0.00000000       0.00000000       0.00000000
O        7.94456285       2.83574070      12.67825266  T       0.00000000       0.00000000       0.00000000
O        4.76680055       0.39601716      12.69368886  T       0.00000000       0.00000000       0.00000000
O        4.77199728       2.83703817      12.68201531  T       0.00000000       0.00000000       0.00000000
O        3.17910476       4.82613021      13.69663010  T       0.00000000       0.00000000       0.00000000
O        6.37558170      11.16088626      13.79109773  T       0.00000000       0.00000000       0.00000000
O        4.76585465      10.00826748       2.73351527  F       0.00000000       0.00000000       0.00000000
O        4.76585465      12.47529802       2.73351527  F       0.00000000       0.00000000       0.00000000
O        3.17723643       8.02984482       3.96703054  F       0.00000000       0.00000000       0.00000000
O        3.17723643       8.02984482       1.50000000  F       0.00000000       0.00000000       0.00000000
O        4.76583213       9.26262741       6.08592309  F       0.00000000       0.00000000       0.00000000
O        3.17722243      11.24178386       7.22601453  F       0.00000000       0.00000000       0.00000000
O        3.17723643      11.24178275       4.71193793  F       0.00000000       0.00000000       0.00000000
O        4.76625366      10.00929882       9.26573302  T       0.00000000       0.00000000       0.00000000
O        4.76661484      12.47793776       9.27961089  T       0.00000000       0.00000000       0.00000000
O        3.17687710       8.03046759      10.41704390  T       0.00000000       0.00000000       0.00000000
O        3.17753035       8.03238608       7.94511335  T       0.00000000       0.00000000       0.00000000
O        4.77077424       6.81437938      12.68529507  T       0.00000000       0.00000000       0.00000000
O        4.75749640       9.25488494      12.68610522  T       0.00000000       0.00000000       0.00000000
O        3.15652731      11.25584833      13.71344730  T       0.00000000       0.00000000       0.00000000
O        3.17596882      11.22785873      11.20923225  T       0.00000000       0.00000000       0.00000000
O        7.94309108       3.58439162       2.73351527  F       0.00000000       0.00000000       0.00000000
O        7.96074209       0.39379056      12.65182662  T       0.00000000       0.00000000       0.00000000
O        3.17726689       1.60181857       7.94425940  T       0.00000000       0.00000000       0.00000000
O        3.17827430       1.59196348      10.41753870  T       0.00000000       0.00000000       0.00000000
O        4.76583238       6.79706024       6.08593407  F       0.00000000       0.00000000       0.00000000
O        6.35669860       4.82485749      13.69738264  T       0.00000000       0.00000000       0.00000000
O        4.76661271       6.05445771       9.24848898  T       0.00000000       0.00000000       0.00000000
O        6.35578620       4.81614335      11.21199745  T       0.00000000       0.00000000       0.00000000
O        7.94309108      10.00826748       2.73351527  F       0.00000000       0.00000000       0.00000000
O        7.94309108      12.47529802       2.73351527  F       0.00000000       0.00000000       0.00000000
O        6.35447286       8.02984482       3.96703054  F       0.00000000       0.00000000       0.00000000
O        6.35447286       8.02984482       1.50000000  F       0.00000000       0.00000000       0.00000000
O        7.94309077       6.79706319       6.08592610  F       0.00000000       0.00000000       0.00000000
O        6.35446208      11.24178289       7.22597601  F       0.00000000       0.00000000       0.00000000
O        6.35447286      11.24178275       4.71193793  F       0.00000000       0.00000000       0.00000000
O        7.94372976      10.00938396       9.28073493  T       0.00000000       0.00000000       0.00000000
O        7.94309115       9.26262662       6.08591614  F       0.00000000       0.00000000       0.00000000
O        6.35447434       8.04299541      10.41336557  T       0.00000000       0.00000000       0.00000000
O        4.76576738       3.58511214       9.25585699  T       0.00000000       0.00000000       0.00000000
O        7.94376618      12.47720066       9.28479969  T       0.00000000       0.00000000       0.00000000
O        3.17723643       4.81790689       4.71193793  F       0.00000000       0.00000000       0.00000000
O        6.35447286       1.60596896       3.96703054  F       0.00000000       0.00000000       0.00000000
O        7.94309701       0.37317906       6.08592278  F       0.00000000       0.00000000       0.00000000
O        7.94309108       6.05142216       2.73351527  F       0.00000000       0.00000000       0.00000000
O        7.94423402       6.81320209      12.68627355  T       0.00000000       0.00000000       0.00000000
O        6.35476208       8.03603480       7.94462453  T       0.00000000       0.00000000       0.00000000
O        7.96214457       9.25476071      12.68196150  T       0.00000000       0.00000000       0.00000000
Pd       4.76586017      11.24177762       5.96678586  F       0.00000000       0.00000000       0.00000000
Pd       4.71145965      11.25540194      12.47872563  T       0.00000000       0.00000000       0.00000000
Pd       3.17973839       8.02990723      12.39945663  T       0.00000000       0.00000000       0.00000000
Pd       1.59813856      11.24888693      12.47303115  T       0.00000000       0.00000000       0.00000000
Pd       3.17725104       8.02984249       5.93124939  F       0.00000000       0.00000000       0.00000000
Pd       9.53167951       8.02984246       5.93125040  F       0.00000000       0.00000000       0.00000000
Pd       7.94309108       1.60596896       2.73351527  F       0.00000000       0.00000000       0.00000000
Pd       6.35447286       4.81790689       2.73351527  F       0.00000000       0.00000000       0.00000000
Pd       1.58862042      11.24178075       5.96678264  F       0.00000000       0.00000000       0.00000000
Pd       9.53781740       8.02869503      12.39885860  T       0.00000000       0.00000000       0.00000000
Pd       6.35802377       1.62305749      12.38127914  T       0.00000000       0.00000000       0.00000000
Pd       6.35446907       1.60596427       5.93125186  F       0.00000000       0.00000000       0.00000000
Pd       0.00000000      11.24178275       2.73351527  F       0.00000000       0.00000000       0.00000000
Pd       1.58861822       8.02984482       2.73351527  F       0.00000000       0.00000000       0.00000000
Pd       7.94398302       1.60789640       9.16398630  T       0.00000000       0.00000000       0.00000000
Pd       6.35476157       4.81998884       9.21851065  T       0.00000000       0.00000000       0.00000000
Pd       3.17723643      11.24178275       2.73351527  F       0.00000000       0.00000000       0.00000000
Pd       4.76585465       8.02984482       2.73351527  F       0.00000000       0.00000000       0.00000000
Pd       9.54193422       1.62512891      12.39457564  T       0.00000000       0.00000000       0.00000000
Pd       4.76572179       8.03207995       9.16836840  T       0.00000000       0.00000000       0.00000000
Pd       1.58908422       8.03078268       9.16885856  T       0.00000000       0.00000000       0.00000000
Pd       7.94307467       4.81790887       5.96677722  F       0.00000000       0.00000000       0.00000000
Pd       9.53115647      11.24451567       9.20663849  T       0.00000000       0.00000000       0.00000000
Pd       9.53146061       4.81987770       9.21872841  T       0.00000000       0.00000000       0.00000000
Pd       7.94488942       4.82522771      12.46319837  T       0.00000000       0.00000000       0.00000000
Pd       4.76585465       1.60596896       2.73351527  F       0.00000000       0.00000000       0.00000000
Pd       4.76797047       4.82590820      12.46359648  T       0.00000000       0.00000000       0.00000000
Pd       7.94307042      11.24177723       5.96677003  F       0.00000000       0.00000000       0.00000000
Pd       6.35446228       8.02984189       5.93125037  F       0.00000000       0.00000000       0.00000000
Pd       6.35447286      11.24178275       2.73351527  F       0.00000000       0.00000000       0.00000000
Pd       7.94309108       8.02984482       2.73351527  F       0.00000000       0.00000000       0.00000000
Pd       3.18178567       1.62157692      12.40331392  T       0.00000000       0.00000000       0.00000000
Pd       1.58998932       1.61037224       9.16792916  T       0.00000000       0.00000000       0.00000000
Pd       3.18005002      11.24509484       9.20962036  T       0.00000000       0.00000000       0.00000000
Pd       7.94364331       8.03224743       9.16820759  T       0.00000000       0.00000000       0.00000000
Pd       6.35531221      11.24392488       9.24103074  T       0.00000000       0.00000000       0.00000000
Pd       1.58861839       4.81790857       5.96677563  F       0.00000000       0.00000000       0.00000000
Pd       4.76586828       4.81790686       5.96677661  F       0.00000000       0.00000000       0.00000000
Pd       3.17786398       4.82059210       9.21873294  T       0.00000000       0.00000000       0.00000000
Pd       4.76517034       1.60887581       9.16510910  T       0.00000000       0.00000000       0.00000000
Pd       8.01845791      11.24777853      12.46783982  T       0.00000000       0.00000000       0.00000000
Pd       6.35770618       8.03387640      12.39284559  T       0.00000000       0.00000000       0.00000000
Pd       3.17725665       1.60596829       5.93125128  F       0.00000000       0.00000000       0.00000000
Pd       0.00000000       4.81790689       2.73351527  F       0.00000000       0.00000000       0.00000000
Pd       9.53168164       1.60596920       5.93125239  F       0.00000000       0.00000000       0.00000000
Pd       3.17723643       4.81790689       2.73351527  F       0.00000000       0.00000000       0.00000000
Pd       1.59096671       4.82561292      12.46193408  T       0.00000000       0.00000000       0.00000000
Pd       1.58861822       1.60596896       2.73351527  F       0.00000000       0.00000000       0.00000000
O        6.33481744      11.34971215      15.19769315  T       0.00000000       0.00000000       0.00000000
C        7.22040260      12.43010513      15.60130067  T       0.00000000       0.00000000       0.00000000
H        7.13708900      12.41805154      16.69850727  T       0.00000000       0.00000000       0.00000000
H        8.25254291      12.21904773      15.27367363  T       0.00000000       0.00000000       0.00000000
H        6.87604739      13.39343406      15.19309504  T       0.00000000       0.00000000       0.00000000
