149
Lattice="9.531709292017604 0.0 0.0 0.0 12.847751714415933 0.0 0.0 0.0 32.10284432209217" Properties=species:S:1:pos:R:3:move_mask:L:1:momenta:R:3 adsorbate_info="_JSON {\"site\": {\"coordinates\": [6.884010108431776, 9.50347836163129, 12.885466157236309], \"connectivity\": 3, \"topology\": [53, 95, 137], \"n_vector\": [0.01552774564472165, -0.3163955128505214, 0.9485002733596066], \"h_vector\": [0.7864200014521048, 0.5984856591342061, 0.15283486881849448], \"site_formula\": {\"O\": 2, \"Pd\": 1}}, \"smiles\": \"ClOC\", \"mdf\": 2.0310137087589903, \"adsorbate_formula\": \"CH3O\"}" mace_E=-767.2575389996656 converged=T n_steps=184 d_min=2.586221963460229 site_type=unknown dE_rel_meV=0 original_idx=260 rank=9 E_MACE=-767.2563014932898 pbc="T T T"
O        3.16569790       5.21590770      11.19730921  T       0.00000000       0.00000000       0.00000000
O        1.58596674       0.57997508      12.76747196  T       0.00000000       0.00000000       0.00000000
O        1.58640533       3.00986486      12.52784712  T       0.00000000       0.00000000       0.00000000
O        9.52218295       4.89559231      13.68200416  T       0.00000000       0.00000000       0.00000000
O        0.00688531       5.21921922      11.19828390  T       0.00000000       0.00000000       0.00000000
O        1.58861822      10.00826748       2.73351527  F       0.00000000       0.00000000       0.00000000
O        1.58861822      12.47529802       2.73351527  F       0.00000000       0.00000000       0.00000000
O        4.76584344       2.83874884       6.08591509  F       0.00000000       0.00000000       0.00000000
O        0.00000000       8.02984482       1.50000000  F       0.00000000       0.00000000       0.00000000
O        1.58861107       6.79705424       6.08592811  F       0.00000000       0.00000000       0.00000000
O        9.53121436       1.88997821       7.94158045  T       0.00000000       0.00000000       0.00000000
O        1.58861150       9.26263623       6.08591827  F       0.00000000       0.00000000       0.00000000
O        4.76583598       0.37317881       6.08593111  F       0.00000000       0.00000000       0.00000000
O        6.34995441      11.62357654      11.21304202  T       0.00000000       0.00000000       0.00000000
O        3.17723028       4.81790423       7.22598268  F       0.00000000       0.00000000       0.00000000
O        6.35447286       1.60596896       1.50000000  F       0.00000000       0.00000000       0.00000000
O        7.94309377       2.83875127       6.08591528  F       0.00000000       0.00000000       0.00000000
O        6.35447101       4.81790868       7.22598243  F       0.00000000       0.00000000       0.00000000
O        6.35447286       4.81790689       4.71193793  F       0.00000000       0.00000000       0.00000000
O        7.94185210       3.67140371       9.52900771  T       0.00000000       0.00000000       0.00000000
O        7.94030163       6.13332979       8.93073027  T       0.00000000       0.00000000       0.00000000
O        0.00000338      11.24178289       7.22597220  F       0.00000000       0.00000000       0.00000000
O        1.58682988       6.13273537       8.91485734  T       0.00000000       0.00000000       0.00000000
O        1.58634339       3.67353374       9.52749763  T       0.00000000       0.00000000       0.00000000
O        0.00000000       4.81790689       4.71193793  F       0.00000000       0.00000000       0.00000000
O        1.58669051      12.55841804       8.92007106  T       0.00000000       0.00000000       0.00000000
O        0.00096901       7.86702801      10.39191971  T       0.00000000       0.00000000       0.00000000
O       -0.00783611      11.67208787      11.19604545  T       0.00000000       0.00000000       0.00000000
O        4.76585465       6.05142216       2.73351527  F       0.00000000       0.00000000       0.00000000
O        9.51797899       8.30888675       7.94323514  T       0.00000000       0.00000000       0.00000000
O        3.17723643       1.60596896       3.96703054  F       0.00000000       0.00000000       0.00000000
O        9.53129033      11.32782868      13.67527843  T       0.00000000       0.00000000       0.00000000
O        1.58462541       9.43607914      12.50884359  T       0.00000000       0.00000000       0.00000000
O        4.76585465       3.58439162       2.73351527  F       0.00000000       0.00000000       0.00000000
O        1.58519361       6.98879385      12.76875616  T       0.00000000       0.00000000       0.00000000
O        3.17723643       1.60596896       1.50000000  F       0.00000000       0.00000000       0.00000000
O        0.00000000       8.02984482       3.96703054  F       0.00000000       0.00000000       0.00000000
O        1.58627986      10.09904434       9.51981599  T       0.00000000       0.00000000       0.00000000
O        0.00000000      11.24178275       4.71193793  F       0.00000000       0.00000000       0.00000000
O        1.58861822       3.58439162       2.73351527  F       0.00000000       0.00000000       0.00000000
O        1.58861822       6.05142216       2.73351527  F       0.00000000       0.00000000       0.00000000
O        0.00000000       1.60596896       3.96703054  F       0.00000000       0.00000000       0.00000000
O        0.00000000       1.60596896       1.50000000  F       0.00000000       0.00000000       0.00000000
O        1.58861510       0.37317604       6.08592568  F       0.00000000       0.00000000       0.00000000
O        1.58861475       2.83876150       6.08591621  F       0.00000000       0.00000000       0.00000000
O        0.00000677       4.81790638       7.22598148  F       0.00000000       0.00000000       0.00000000
O        6.35276767       1.43662270      10.39250547  T       0.00000000       0.00000000       0.00000000
O        6.35432642       1.89627567       7.94108869  T       0.00000000       0.00000000       0.00000000
O        0.00020683       1.45370224      10.39625344  T       0.00000000       0.00000000       0.00000000
O        7.94280691       3.00736774      12.51730987  T       0.00000000       0.00000000       0.00000000
O        4.75645476       0.57962711      12.75328130  T       0.00000000       0.00000000       0.00000000
O        4.76467895       3.00734738      12.52231491  T       0.00000000       0.00000000       0.00000000
O        3.18434979       4.89507324      13.68292472  T       0.00000000       0.00000000       0.00000000
O        6.34618931      11.38639988      13.77324284  T       0.00000000       0.00000000       0.00000000
O        4.76585465      10.00826748       2.73351527  F       0.00000000       0.00000000       0.00000000
O        4.76585465      12.47529802       2.73351527  F       0.00000000       0.00000000       0.00000000
O        3.17723643       8.02984482       3.96703054  F       0.00000000       0.00000000       0.00000000
O        3.17723643       8.02984482       1.50000000  F       0.00000000       0.00000000       0.00000000
O        4.76583213       9.26262741       6.08592309  F       0.00000000       0.00000000       0.00000000
O        3.17722243      11.24178386       7.22601453  F       0.00000000       0.00000000       0.00000000
O        3.17723643      11.24178275       4.71193793  F       0.00000000       0.00000000       0.00000000
O        4.76204797      10.09741500       9.52086184  T       0.00000000       0.00000000       0.00000000
O        4.76487502      12.55764354       8.92159303  T       0.00000000       0.00000000       0.00000000
O        3.17043795       7.86600238      10.38922290  T       0.00000000       0.00000000       0.00000000
O        3.18685591       8.31226808       7.94412646  T       0.00000000       0.00000000       0.00000000
O        4.73571804       6.98282706      12.73799861  T       0.00000000       0.00000000       0.00000000
O        4.72608153       9.43760505      12.46799118  T       0.00000000       0.00000000       0.00000000
O        3.16594322      11.33496012      13.67613620  T       0.00000000       0.00000000       0.00000000
O        3.17439461      11.67316040      11.19571570  T       0.00000000       0.00000000       0.00000000
O        7.94309108       3.58439162       2.73351527  F       0.00000000       0.00000000       0.00000000
O        7.94575200       0.57792603      12.75743506  T       0.00000000       0.00000000       0.00000000
O        3.17616881       1.89431118       7.94199699  T       0.00000000       0.00000000       0.00000000
O        3.17629519       1.45938400      10.39465845  T       0.00000000       0.00000000       0.00000000
O        4.76583238       6.79706024       6.08593407  F       0.00000000       0.00000000       0.00000000
O        6.35163711       4.86701708      13.67338053  T       0.00000000       0.00000000       0.00000000
O        4.76626225       6.13331426       8.93342949  T       0.00000000       0.00000000       0.00000000
O        6.35234283       5.20999703      11.19536915  T       0.00000000       0.00000000       0.00000000
O        7.94309108      10.00826748       2.73351527  F       0.00000000       0.00000000       0.00000000
O        7.94309108      12.47529802       2.73351527  F       0.00000000       0.00000000       0.00000000
O        6.35447286       8.02984482       3.96703054  F       0.00000000       0.00000000       0.00000000
O        6.35447286       8.02984482       1.50000000  F       0.00000000       0.00000000       0.00000000
O        7.94309077       6.79706319       6.08592610  F       0.00000000       0.00000000       0.00000000
O        6.35446208      11.24178289       7.22597601  F       0.00000000       0.00000000       0.00000000
O        6.35447286      11.24178275       4.71193793  F       0.00000000       0.00000000       0.00000000
O        7.94193266      10.09759267       9.52140610  T       0.00000000       0.00000000       0.00000000
O        7.94309115       9.26262662       6.08591614  F       0.00000000       0.00000000       0.00000000
O        6.35301376       7.89587191      10.45543212  T       0.00000000       0.00000000       0.00000000
O        4.76583649       3.67290386       9.52844097  T       0.00000000       0.00000000       0.00000000
O        7.94073030      12.55754216       8.91557752  T       0.00000000       0.00000000       0.00000000
O        3.17723643       4.81790689       4.71193793  F       0.00000000       0.00000000       0.00000000
O        6.35447286       1.60596896       3.96703054  F       0.00000000       0.00000000       0.00000000
O        7.94309701       0.37317906       6.08592278  F       0.00000000       0.00000000       0.00000000
O        7.94309108       6.05142216       2.73351527  F       0.00000000       0.00000000       0.00000000
O        7.96214384       6.98420086      12.75077161  T       0.00000000       0.00000000       0.00000000
O        6.35284240       8.31470431       7.95395002  T       0.00000000       0.00000000       0.00000000
O        7.97049424       9.43522490      12.47425559  T       0.00000000       0.00000000       0.00000000
Pd       4.76586017      11.24177762       5.96678586  F       0.00000000       0.00000000       0.00000000
Pd       4.72384593      11.44065449      12.43477419  T       0.00000000       0.00000000       0.00000000
Pd       3.15889391       8.19321865      12.35000860  T       0.00000000       0.00000000       0.00000000
Pd       1.58314102      11.43846526      12.45110396  T       0.00000000       0.00000000       0.00000000
Pd       3.17725104       8.02984249       5.93124939  F       0.00000000       0.00000000       0.00000000
Pd       9.53167951       8.02984246       5.93125040  F       0.00000000       0.00000000       0.00000000
Pd       7.94309108       1.60596896       2.73351527  F       0.00000000       0.00000000       0.00000000
Pd       6.35447286       4.81790689       2.73351527  F       0.00000000       0.00000000       0.00000000
Pd       1.58862042      11.24178075       5.96678264  F       0.00000000       0.00000000       0.00000000
Pd       9.54045214       8.19294708      12.35445277  T       0.00000000       0.00000000       0.00000000
Pd       6.35330101       1.78267306      12.35147266  T       0.00000000       0.00000000       0.00000000
Pd       6.35446907       1.60596427       5.93125186  F       0.00000000       0.00000000       0.00000000
Pd       0.00000000      11.24178275       2.73351527  F       0.00000000       0.00000000       0.00000000
Pd       1.58861822       8.02984482       2.73351527  F       0.00000000       0.00000000       0.00000000
Pd       7.94195405       1.69509857       9.16584507  T       0.00000000       0.00000000       0.00000000
Pd       6.35388812       4.90899509       9.22969122  T       0.00000000       0.00000000       0.00000000
Pd       3.17723643      11.24178275       2.73351527  F       0.00000000       0.00000000       0.00000000
Pd       4.76585465       8.02984482       2.73351527  F       0.00000000       0.00000000       0.00000000
Pd       9.53187341       1.78178200      12.36205219  T       0.00000000       0.00000000       0.00000000
Pd       4.76656482       8.11755591       9.18285868  T       0.00000000       0.00000000       0.00000000
Pd       1.58609567       8.12051477       9.15830699  T       0.00000000       0.00000000       0.00000000
Pd       7.94307467       4.81790887       5.96677722  F       0.00000000       0.00000000       0.00000000
Pd       9.52734035      11.33491398       9.22450370  T       0.00000000       0.00000000       0.00000000
Pd       9.53133638       4.90969968       9.23237237  T       0.00000000       0.00000000       0.00000000
Pd       7.94787812       5.00102706      12.43929611  T       0.00000000       0.00000000       0.00000000
Pd       4.76585465       1.60596896       2.73351527  F       0.00000000       0.00000000       0.00000000
Pd       4.75613987       4.99774367      12.43764093  T       0.00000000       0.00000000       0.00000000
Pd       7.94307042      11.24177723       5.96677003  F       0.00000000       0.00000000       0.00000000
Pd       6.35446228       8.02984189       5.93125037  F       0.00000000       0.00000000       0.00000000
Pd       6.35447286      11.24178275       2.73351527  F       0.00000000       0.00000000       0.00000000
Pd       7.94309108       8.02984482       2.73351527  F       0.00000000       0.00000000       0.00000000
Pd       3.17273175       1.78247394      12.36050234  T       0.00000000       0.00000000       0.00000000
Pd       1.58757034       1.69786257       9.16603069  T       0.00000000       0.00000000       0.00000000
Pd       3.17645586      11.33555488       9.22411365  T       0.00000000       0.00000000       0.00000000
Pd       7.93785263       8.11731953       9.18248601  T       0.00000000       0.00000000       0.00000000
Pd       6.35261653      11.33470626       9.23507931  T       0.00000000       0.00000000       0.00000000
Pd       1.58861839       4.81790857       5.96677563  F       0.00000000       0.00000000       0.00000000
Pd       4.76586828       4.81790686       5.96677661  F       0.00000000       0.00000000       0.00000000
Pd       3.17533664       4.90951597       9.23199716  T       0.00000000       0.00000000       0.00000000
Pd       4.76544123       1.69692875       9.16555916  T       0.00000000       0.00000000       0.00000000
Pd       7.97410105      11.43758660      12.43551627  T       0.00000000       0.00000000       0.00000000
Pd       6.34898947       8.19914352      12.39698351  T       0.00000000       0.00000000       0.00000000
Pd       3.17725665       1.60596829       5.93125128  F       0.00000000       0.00000000       0.00000000
Pd       0.00000000       4.81790689       2.73351527  F       0.00000000       0.00000000       0.00000000
Pd       9.53168164       1.60596920       5.93125239  F       0.00000000       0.00000000       0.00000000
Pd       3.17723643       4.81790689       2.73351527  F       0.00000000       0.00000000       0.00000000
Pd       1.58666345       5.00286547      12.45669532  T       0.00000000       0.00000000       0.00000000
Pd       1.58861822       1.60596896       2.73351527  F       0.00000000       0.00000000       0.00000000
O        6.30651353       8.44459255      14.58303837  T       0.00000000       0.00000000       0.00000000
C        6.29425145       7.39058500      15.24282109  T       0.00000000       0.00000000       0.00000000
H        6.22872570       7.47507699      16.34914261  T       0.00000000       0.00000000       0.00000000
H        6.33649398      10.49999416      14.19952828  T       0.00000000       0.00000000       0.00000000
H        6.34642321       6.38327106      14.74683840  T       0.00000000       0.00000000       0.00000000
