       N       E                     dE             d eps       ncg     rms          rms(c)
DAV:   1     0.589175723822E+03    0.58918E+03   -0.34265E+04  7416   0.172E+03
DAV:   2    -0.747437383641E+01   -0.59665E+03   -0.57469E+03  8352   0.491E+02
DAV:   3    -0.405641769798E+02   -0.33090E+02   -0.32735E+02  7916   0.120E+02
DAV:   4    -0.409892738841E+02   -0.42510E+00   -0.42446E+00  7940   0.147E+01
DAV:   5    -0.409939972651E+02   -0.47234E-02   -0.47229E-02  7724   0.156E+00    0.281E+01
DAV:   6    -0.356359495137E+02    0.53580E+01   -0.51601E+01  7720   0.655E+01    0.156E+01
DAV:   7    -0.321919932532E+02    0.34440E+01   -0.15693E+01  7564   0.360E+01    0.539E+00
DAV:   8    -0.321407398417E+02    0.51253E-01   -0.12742E+00  7624   0.663E+00    0.301E+00
DAV:   9    -0.321142677690E+02    0.26472E-01   -0.13035E-01  7832   0.325E+00    0.846E-01
DAV:  10    -0.321111734332E+02    0.30943E-02   -0.17892E-02  7664   0.128E+00    0.273E-01
DAV:  11    -0.321111940669E+02   -0.20634E-04   -0.20077E-03  7676   0.362E-01    0.118E-01
DAV:  12    -0.321111536599E+02    0.40407E-04   -0.21622E-04  7764   0.962E-02    0.522E-02
DAV:  13    -0.321111692834E+02   -0.15623E-04   -0.79794E-05  7660   0.530E-02    0.125E-02
DAV:  14    -0.321111708084E+02   -0.15250E-05   -0.27402E-06  6072   0.125E-02    0.483E-03
DAV:  15    -0.321111704684E+02    0.34000E-06   -0.75063E-07  4528   0.718E-03
   1 F= -.33525190E+02 E0= -.33522678E+02  d E =-.502476E-02  mag=    -0.3280
