       N       E                     dE             d eps       ncg     rms          rms(c)
DAV:   1     0.765803799554E+03    0.76580E+03   -0.39134E+04 13928   0.189E+03
DAV:   2     0.631737323990E+01   -0.75949E+03   -0.73200E+03 14064   0.565E+02
DAV:   3    -0.213926180522E+02   -0.27710E+02   -0.27083E+02 15000   0.113E+02
DAV:   4    -0.216931084847E+02   -0.30049E+00   -0.30043E+00 14288   0.126E+01
DAV:   5    -0.216979975021E+02   -0.48890E-02   -0.48890E-02 14984   0.157E+00    0.108E+01
DAV:   6    -0.208294173605E+02    0.86858E+00   -0.37528E+00 14456   0.137E+01    0.228E+00
DAV:   7    -0.208285454035E+02    0.87196E-03   -0.38882E-02 14400   0.145E+00    0.152E+00
DAV:   8    -0.208270264985E+02    0.15189E-02   -0.45153E-03 14768   0.546E-01    0.835E-01
DAV:   9    -0.208275488112E+02   -0.52231E-03   -0.25738E-03 14328   0.421E-01    0.864E-02
DAV:  10    -0.208277972606E+02   -0.24845E-03   -0.29490E-04 15104   0.130E-01    0.842E-02
DAV:  11    -0.208278476724E+02   -0.50412E-04   -0.26975E-05 14664   0.331E-02    0.679E-02
DAV:  12    -0.208279138198E+02   -0.66147E-04   -0.15261E-04 14160   0.694E-02    0.865E-03
DAV:  13    -0.208279198602E+02   -0.60404E-05   -0.41941E-06 12488   0.153E-02    0.583E-03
DAV:  14    -0.208279211229E+02   -0.12627E-05   -0.59944E-07  7512   0.564E-03    0.265E-03
DAV:  15    -0.208279226338E+02   -0.15109E-05   -0.29039E-07  7328   0.349E-03    0.123E-03
DAV:  16    -0.208279227958E+02   -0.16192E-06   -0.49047E-08  7208   0.165E-03
   1 F= -.23448848E+02 E0= -.23448805E+02  d E =-.127987E-03  mag=     0.9583
