 vasp.6.4.3 19Mar24 (build Nov 27 2025 15:18:09) complex                         
 executed on              LinuxNV date 2026.06.04  16:31:42
 running    4 mpi-ranks, with    1 threads/rank, on    1 nodes
 distrk:  each k-point on    4 cores,    1 groups
 distr:  one band on NCORE=   1 cores,    4 groups
 OpenACC runtime initialized ...    0 GPUs detected


--------------------------------------------------------------------------------------------------------


 INCAR:
   SYSTEM = pddmc
   ENCUT = 500
   PREC = Accurate
   LASPH = .TRUE.
   ADDGRID = .TRUE.
   ISPIN = 2
   IVDW = 12
   EDIFF = 1e-06
   NELM = 200
   NELMIN = 5
   ALGO = Normal
   NCORE = 1
   LREAL = .FALSE.
   LWAVE = .FALSE.
   LCHARG = .FALSE.
   LORBIT = 11
   ISYM = 2
   IBRION = -1
   NSW = 0
   ISIF = 0
   ISMEAR = 1
   SIGMA = 0.1
   EDIFFG = -0.01

 POTCAR:    PAW_PBE Pd_pv 28Jan2005               
 -----------------------------------------------------------------------------
|                                                                             |
|           W    W    AA    RRRRR   N    N  II  N    N   GGGG   !!!           |
|           W    W   A  A   R    R  NN   N  II  NN   N  G    G  !!!           |
|           W    W  A    A  R    R  N N  N  II  N N  N  G       !!!           |
|           W WW W  AAAAAA  RRRRR   N  N N  II  N  N N  G  GGG   !            |
|           WW  WW  A    A  R   R   N   NN  II  N   NN  G    G                |
|           W    W  A    A  R    R  N    N  II  N    N   GGGG   !!!           |
|                                                                             |
|     You use a magnetic or noncollinear calculation, but did not specify     |
|     the initial magnetic moment with the MAGMOM tag. Note that a            |
|     default of 1 will be used for all atoms. This ferromagnetic setup       |
|     may break the symmetry of the crystal, in particular it may rule        |
|     out finding an antiferromagnetic solution. Thence, we recommend         |
|     setting the initial magnetic moment manually or verifying carefully     |
|     that this magnetic setup is desired.                                    |
|                                                                             |
 -----------------------------------------------------------------------------

 POTCAR:    PAW_PBE Pd_pv 28Jan2005               
   SHA256 =  3ce661545bbde58da9a95410dea32907db2844916708bcd35bbe03ee66324d7f Pd_pv/POTCAR          
   COPYR  = (c) Copyright 28Jan2005 Georg Kresse                                                    
   COPYR  = This file is part of the software VASP. Any use, copying, and all other rights are regul
   COPYR  = If you do not have a valid VASP license, you may not use, copy or distribute this file. 
   VRHFIN =Pd: 4p5s4d                                                                               
   LEXCH  = PE                                                                                      
   EATOM  =  2621.5550 eV,  192.6789 Ry                                                             
                                                                                                    
   TITEL  = PAW_PBE Pd_pv 28Jan2005                                                                 
   LULTRA =        F    use ultrasoft PP ?                                                          
   IUNSCR =        1    unscreen: 0-lin 1-nonlin 2-no                                               
   RPACOR =    2.250    partial core radius                                                         
   POMASS =  106.420; ZVAL   =   16.000    mass and valenz                                          
   RCORE  =    2.400    outmost cutoff radius                                                       
   RWIGS  =    2.300; RWIGS  =    1.217    wigner-seitz radius (au A)                               
   ENMAX  =  250.925; ENMIN  =  188.194 eV                                                          
   ICORE  =        3    local potential                                                             
   LCOR   =        T    correct aug charges                                                         
   LPAW   =        T    paw PP                                                                      
   EAUG   =  473.067                                                                                
   DEXC   =    0.000                                                                                
   RMAX   =    2.449    core radius for proj-oper                                                   
   RAUG   =    1.300    factor for augmentation sphere                                              
   RDEP   =    2.405    radius for radial grids                                                     
   RDEPT  =    1.966    core radius for aug-charge                                                  
                                                                                                    
   Atomic configuration                                                                             
   11 entries                                                                                       
     n  l   j            E        occ.                                                              
     1  0  0.50    -24164.6632   2.0000                                                             
     2  0  0.50     -3530.9218   2.0000                                                             
     2  1  1.50     -3165.6822   6.0000                                                             
     3  0  0.50      -639.4578   2.0000                                                             
     3  1  1.50      -519.4532   6.0000                                                             
     3  2  2.50      -328.9758  10.0000                                                             
     4  0  0.50       -88.7014   2.0000                                                             
     4  1  1.50       -54.4541   6.0000                                                             
     4  2  2.50        -6.6878   9.0000                                                             
     5  0  0.50        -4.3543   1.0000                                                             
     4  3  2.50        -1.3606   0.0000                                                             
   Description                                                                                      
     l       E           TYP  RCUT    TYP  RCUT                                                     
     1    -54.4540524     23  2.100                                                                 
     1      4.0817478     23  2.100                                                                 
     2     -6.6878326     23  2.400                                                                 
     2     -4.0817478     23  2.400                                                                 
     0     -4.3542962     23  2.400                                                                 
     0     13.6058260     23  2.400                                                                 
     3     -5.4423304     23  2.400                                                                 
  local pseudopotential read in
  partial core-charges read in
  partial kinetic energy density read in
  atomic valenz-charges read in
  non local Contribution for L=            1  read in
    real space projection operators read in
  non local Contribution for L=            1  read in
    real space projection operators read in
  non local Contribution for L=            2  read in
    real space projection operators read in
  non local Contribution for L=            2  read in
    real space projection operators read in
  non local Contribution for L=            0  read in
    real space projection operators read in
  non local Contribution for L=            0  read in
    real space projection operators read in
    PAW grid and wavefunctions read in
 
   number of l-projection  operators is LMAX  =            6
   number of lm-projection operators is LMMAX =           18
 
  PAW_PBE Pd_pv 28Jan2005               :
 energy of atom  1       EATOM=-2621.5550
 kinetic energy error for atom=    0.0092 (will be added to EATOM!!)
 
 
 POSCAR: Pd
  positions in cartesian coordinates
  No initial velocities read in
 IVDW         = 12
 VDW_S6       =    1.0000
 VDW_S8       =    0.7875
 VDW_A1       =    0.4289
 VDW_A2       =    4.4407
 VDW_RADIUS   =   50.2022 A
 VDW_CNRADIUS =   21.1671 A


 exchange-correlation table for PE
   RHO(1)=    0.500       N(1)  =     2000
   RHO(2)=  100.500       N(2)  =     4000
 


--------------------------------------------------------------------------------------------------------


 ion  position               nearest neighbor table
   1  0.000  0.000  0.000-   2 2.77   3 2.77   2 2.77   3 2.77   2 2.77   4 2.77   2 2.77   3 2.77
                             4 2.77   3 2.77   4 2.77   4 2.77
   2  0.000  0.500  0.500-   1 2.77   4 2.77   1 2.77   4 2.77   1 2.77   3 2.77   1 2.77   3 2.77
                             4 2.77   4 2.77   3 2.77   3 2.77
   3  0.500  0.000  0.500-   1 2.77   4 2.77   1 2.77   4 2.77   2 2.77   4 2.77   4 2.77   1 2.77
                             2 2.77   1 2.77   2 2.77   2 2.77
   4  0.500  0.500  0.000-   2 2.77   3 2.77   2 2.77   3 2.77   1 2.77   3 2.77   3 2.77   1 2.77
                             2 2.77   2 2.77   1 2.77   1 2.77
 
  LATTYP: Found a simple cubic cell.
 ALAT       =     3.9173015750
  
  Lattice vectors:
  
 A1 = (   3.9173015750,   0.0000000000,   0.0000000000)
 A2 = (   0.0000000000,   3.9173015750,   0.0000000000)
 A3 = (   0.0000000000,   0.0000000000,   3.9173015750)


Analysis of symmetry for initial positions (statically):
=====================================================================
 Subroutine PRICEL returns following result:
 
  LATTYP: Found a face centered cubic cell.
 ALAT       =     3.9173015750
  
  Lattice vectors:
  
 A1 = (   1.9586507875,  -1.9586507875,   0.0000000000)
 A2 = (   1.9586507875,   0.0000000000,   1.9586507875)
 A3 = (   0.0000000000,  -1.9586507875,   1.9586507875)
 
   4 primitive cells build up your supercell.
 

 Routine SETGRP: Setting up the symmetry group for a 
 simple cubic supercell.


 Subroutine GETGRP returns: Found 48 space group operations
 (whereof 48 operations were pure point group operations)
 out of a pool of 48 trial point group operations.


The static configuration has the point symmetry O_h .


Analysis of symmetry for dynamics (positions and initial velocities):
=====================================================================
 Subroutine PRICEL returns following result:
 
  LATTYP: Found a face centered cubic cell.
 ALAT       =     3.9173015750
  
  Lattice vectors:
  
 A1 = (   1.9586507875,  -1.9586507875,   0.0000000000)
 A2 = (   1.9586507875,   0.0000000000,   1.9586507875)
 A3 = (   0.0000000000,  -1.9586507875,   1.9586507875)
 
   4 primitive cells build up your supercell.
 

 Routine SETGRP: Setting up the symmetry group for a 
 simple cubic supercell.


 Subroutine GETGRP returns: Found 48 space group operations
 (whereof 48 operations were pure point group operations)
 out of a pool of 48 trial point group operations.


The dynamic configuration has the point symmetry O_h .


Analysis of structural, dynamic, and magnetic symmetry:
=====================================================================
 Subroutine PRICEL returns following result:
 
  LATTYP: Found a face centered cubic cell.
 ALAT       =     3.9173015750
  
  Lattice vectors:
  
 A1 = (   1.9586507875,  -1.9586507875,   0.0000000000)
 A2 = (   1.9586507875,   0.0000000000,   1.9586507875)
 A3 = (   0.0000000000,  -1.9586507875,   1.9586507875)
 
   4 primitive cells build up your supercell.
 

 Routine SETGRP: Setting up the symmetry group for a 
 simple cubic supercell.


 Subroutine GETGRP returns: Found 48 space group operations
 (whereof 48 operations were pure point group operations)
 out of a pool of 48 trial point group operations.


The overall configuration has the point symmetry O_h .


 Subroutine INISYM returns: Found 48 space group operations
 (whereof 48 operations are pure point group operations),
 and found     4 'primitive' translations


----------------------------------------------------------------------------------------

                                     Primitive cell                                     

  volume of cell :      15.0280

  direct lattice vectors                    reciprocal lattice vectors
     1.958650787 -1.958650787  0.000000000     0.255277767 -0.255277767 -0.255277767
     1.958650787  0.000000000  1.958650787     0.255277767  0.255277767  0.255277767
     0.000000000 -1.958650787  1.958650787    -0.255277767 -0.255277767  0.255277767

  length of vectors
     2.769950508  2.769950508  2.769950508     0.442154063  0.442154063  0.442154063

  position of ions in fractional coordinates (direct lattice)
     0.000000000  0.000000000  0.000000000

  ion indices of the primitive-cell ions
   primitive index   ion index
                 1           1

----------------------------------------------------------------------------------------

 
 
 KPOINTS: Automatic mesh                          

Automatic generation of k-mesh.
 Grid dimensions read from file:
 generate k-points for:   12   12   12

 Generating k-lattice:

  Cartesian coordinates                     Fractional coordinates (reciprocal lattice)
     0.021273147 -0.000000000  0.000000000     0.083333333 -0.000000000  0.000000000
     0.000000000  0.021273147  0.000000000     0.000000000  0.083333333  0.000000000
    -0.000000000 -0.000000000  0.021273147     0.000000000  0.000000000  0.083333333

  Length of vectors
     0.021273147  0.021273147  0.021273147

  Shift w.r.t. Gamma in fractional coordinates (k-lattice)
     0.000000000  0.000000000  0.000000000

 
 Subroutine IBZKPT returns following result:
 ===========================================
 
 Found     84 irreducible k-points:
 
 Following reciprocal coordinates:
            Coordinates               Weight
  0.000000  0.000000  0.000000      1.000000
  0.083333  0.000000  0.000000      6.000000
  0.166667  0.000000  0.000000      6.000000
  0.250000  0.000000  0.000000      6.000000
  0.333333  0.000000  0.000000      6.000000
  0.416667  0.000000  0.000000      6.000000
  0.500000  0.000000  0.000000      3.000000
  0.083333  0.083333  0.000000     12.000000
  0.166667  0.083333  0.000000     24.000000
  0.250000  0.083333  0.000000     24.000000
  0.333333  0.083333  0.000000     24.000000
  0.416667  0.083333  0.000000     24.000000
  0.500000  0.083333  0.000000     12.000000
  0.166667  0.166667  0.000000     12.000000
  0.250000  0.166667  0.000000     24.000000
  0.333333  0.166667  0.000000     24.000000
  0.416667  0.166667  0.000000     24.000000
  0.500000  0.166667  0.000000     12.000000
  0.250000  0.250000  0.000000     12.000000
  0.333333  0.250000  0.000000     24.000000
  0.416667  0.250000  0.000000     24.000000
  0.500000  0.250000  0.000000     12.000000
  0.333333  0.333333  0.000000     12.000000
  0.416667  0.333333  0.000000     24.000000
  0.500000  0.333333  0.000000     12.000000
  0.416667  0.416667  0.000000     12.000000
  0.500000  0.416667  0.000000     12.000000
  0.500000  0.500000  0.000000      3.000000
  0.083333  0.083333  0.083333      8.000000
  0.166667  0.083333  0.083333     24.000000
  0.250000  0.083333  0.083333     24.000000
  0.333333  0.083333  0.083333     24.000000
  0.416667  0.083333  0.083333     24.000000
  0.500000  0.083333  0.083333     12.000000
  0.166667  0.166667  0.083333     24.000000
  0.250000  0.166667  0.083333     48.000000
  0.333333  0.166667  0.083333     48.000000
  0.416667  0.166667  0.083333     48.000000
  0.500000  0.166667  0.083333     24.000000
  0.250000  0.250000  0.083333     24.000000
  0.333333  0.250000  0.083333     48.000000
  0.416667  0.250000  0.083333     48.000000
  0.500000  0.250000  0.083333     24.000000
  0.333333  0.333333  0.083333     24.000000
  0.416667  0.333333  0.083333     48.000000
  0.500000  0.333333  0.083333     24.000000
  0.416667  0.416667  0.083333     24.000000
  0.500000  0.416667  0.083333     24.000000
  0.500000  0.500000  0.083333      6.000000
  0.166667  0.166667  0.166667      8.000000
  0.250000  0.166667  0.166667     24.000000
  0.333333  0.166667  0.166667     24.000000
  0.416667  0.166667  0.166667     24.000000
  0.500000  0.166667  0.166667     12.000000
  0.250000  0.250000  0.166667     24.000000
  0.333333  0.250000  0.166667     48.000000
  0.416667  0.250000  0.166667     48.000000
  0.500000  0.250000  0.166667     24.000000
  0.333333  0.333333  0.166667     24.000000
  0.416667  0.333333  0.166667     48.000000
  0.500000  0.333333  0.166667     24.000000
  0.416667  0.416667  0.166667     24.000000
  0.500000  0.416667  0.166667     24.000000
  0.500000  0.500000  0.166667      6.000000
  0.250000  0.250000  0.250000      8.000000
  0.333333  0.250000  0.250000     24.000000
  0.416667  0.250000  0.250000     24.000000
  0.500000  0.250000  0.250000     12.000000
  0.333333  0.333333  0.250000     24.000000
  0.416667  0.333333  0.250000     48.000000
  0.500000  0.333333  0.250000     24.000000
  0.416667  0.416667  0.250000     24.000000
  0.500000  0.416667  0.250000     24.000000
  0.500000  0.500000  0.250000      6.000000
  0.333333  0.333333  0.333333      8.000000
  0.416667  0.333333  0.333333     24.000000
  0.500000  0.333333  0.333333     12.000000
  0.416667  0.416667  0.333333     24.000000
  0.500000  0.416667  0.333333     24.000000
  0.500000  0.500000  0.333333      6.000000
  0.416667  0.416667  0.416667      8.000000
  0.500000  0.416667  0.416667     12.000000
  0.500000  0.500000  0.416667      6.000000
  0.500000  0.500000  0.500000      1.000000
 
 Following cartesian coordinates:
            Coordinates               Weight
  0.000000  0.000000  0.000000      1.000000
  0.021273  0.000000  0.000000      6.000000
  0.042546  0.000000  0.000000      6.000000
  0.063819  0.000000  0.000000      6.000000
  0.085093  0.000000  0.000000      6.000000
  0.106366  0.000000  0.000000      6.000000
  0.127639  0.000000  0.000000      3.000000
  0.021273  0.021273  0.000000     12.000000
  0.042546  0.021273  0.000000     24.000000
  0.063819  0.021273  0.000000     24.000000
  0.085093  0.021273  0.000000     24.000000
  0.106366  0.021273  0.000000     24.000000
  0.127639  0.021273  0.000000     12.000000
  0.042546  0.042546  0.000000     12.000000
  0.063819  0.042546  0.000000     24.000000
  0.085093  0.042546  0.000000     24.000000
  0.106366  0.042546  0.000000     24.000000
  0.127639  0.042546  0.000000     12.000000
  0.063819  0.063819  0.000000     12.000000
  0.085093  0.063819  0.000000     24.000000
  0.106366  0.063819  0.000000     24.000000
  0.127639  0.063819  0.000000     12.000000
  0.085093  0.085093  0.000000     12.000000
  0.106366  0.085093  0.000000     24.000000
  0.127639  0.085093  0.000000     12.000000
  0.106366  0.106366  0.000000     12.000000
  0.127639  0.106366  0.000000     12.000000
  0.127639  0.127639  0.000000      3.000000
  0.021273  0.021273  0.021273      8.000000
  0.042546  0.021273  0.021273     24.000000
  0.063819  0.021273  0.021273     24.000000
  0.085093  0.021273  0.021273     24.000000
  0.106366  0.021273  0.021273     24.000000
  0.127639  0.021273  0.021273     12.000000
  0.042546  0.042546  0.021273     24.000000
  0.063819  0.042546  0.021273     48.000000
  0.085093  0.042546  0.021273     48.000000
  0.106366  0.042546  0.021273     48.000000
  0.127639  0.042546  0.021273     24.000000
  0.063819  0.063819  0.021273     24.000000
  0.085093  0.063819  0.021273     48.000000
  0.106366  0.063819  0.021273     48.000000
  0.127639  0.063819  0.021273     24.000000
  0.085093  0.085093  0.021273     24.000000
  0.106366  0.085093  0.021273     48.000000
  0.127639  0.085093  0.021273     24.000000
  0.106366  0.106366  0.021273     24.000000
  0.127639  0.106366  0.021273     24.000000
  0.127639  0.127639  0.021273      6.000000
  0.042546  0.042546  0.042546      8.000000
  0.063819  0.042546  0.042546     24.000000
  0.085093  0.042546  0.042546     24.000000
  0.106366  0.042546  0.042546     24.000000
  0.127639  0.042546  0.042546     12.000000
  0.063819  0.063819  0.042546     24.000000
  0.085093  0.063819  0.042546     48.000000
  0.106366  0.063819  0.042546     48.000000
  0.127639  0.063819  0.042546     24.000000
  0.085093  0.085093  0.042546     24.000000
  0.106366  0.085093  0.042546     48.000000
  0.127639  0.085093  0.042546     24.000000
  0.106366  0.106366  0.042546     24.000000
  0.127639  0.106366  0.042546     24.000000
  0.127639  0.127639  0.042546      6.000000
  0.063819  0.063819  0.063819      8.000000
  0.085093  0.063819  0.063819     24.000000
  0.106366  0.063819  0.063819     24.000000
  0.127639  0.063819  0.063819     12.000000
  0.085093  0.085093  0.063819     24.000000
  0.106366  0.085093  0.063819     48.000000
  0.127639  0.085093  0.063819     24.000000
  0.106366  0.106366  0.063819     24.000000
  0.127639  0.106366  0.063819     24.000000
  0.127639  0.127639  0.063819      6.000000
  0.085093  0.085093  0.085093      8.000000
  0.106366  0.085093  0.085093     24.000000
  0.127639  0.085093  0.085093     12.000000
  0.106366  0.106366  0.085093     24.000000
  0.127639  0.106366  0.085093     24.000000
  0.127639  0.127639  0.085093      6.000000
  0.106366  0.106366  0.106366      8.000000
  0.127639  0.106366  0.106366     12.000000
  0.127639  0.127639  0.106366      6.000000
  0.127639  0.127639  0.127639      1.000000
 


--------------------------------------------------------------------------------------------------------




 Dimension of arrays:
   k-points           NKPTS =     84   k-points in BZ     NKDIM =     84   number of bands    NBANDS=     40
   number of dos      NEDOS =    301   number of ions     NIONS =      4
   non local maximal  LDIM  =      6   non local SUM 2l+1 LMDIM =     18
   total plane-waves  NPLWV =  27000
   max r-space proj   IRMAX =      1   max aug-charges    IRDMAX= 144038
   dimension x,y,z NGX =    30 NGY =   30 NGZ =   30
   dimension x,y,z NGXF=    60 NGYF=   60 NGZF=   60
   support grid    NGXF=   120 NGYF=  120 NGZF=  120
   ions per type =               4
   NGX,Y,Z   is equivalent  to a cutoff of  12.73, 12.73, 12.73 a.u.
   NGXF,Y,Z  is equivalent  to a cutoff of  25.46, 25.46, 25.46 a.u.

 SYSTEM =  pddmc                                   
 POSCAR =  Pd                                      

 Startparameter for this run:
   NWRITE =      2    write-flag & timer
   PREC   = accura    normal or accurate (medium, high low for compatibility)
   ISTART =      0    job   : 0-new  1-cont  2-samecut
   ICHARG =      2    charge: 1-file 2-atom 10-const
   ISPIN  =      2    spin polarized calculation?
   LNONCOLLINEAR =      F non collinear calculations
   LSORBIT =      F    spin-orbit coupling
   INIWAV =      1    electr: 0-lowe 1-rand  2-diag
   LASPH  =      T    aspherical Exc in radial PAW
 Electronic Relaxation 1
   ENCUT  =  500.0 eV  36.75 Ry    6.06 a.u.   7.14  7.14  7.14*2*pi/ulx,y,z
   ENINI  =  500.0     initial cutoff
   ENAUG  =  473.1 eV  augmentation charge cutoff
   NELM   =    200;   NELMIN=  5; NELMDL= -5     # of ELM steps 
   EDIFF  = 0.1E-05   stopping-criterion for ELM
   LREAL  =      F    real-space projection
   NLSPLINE    = F    spline interpolate recip. space projectors
   LCOMPAT=      F    compatible to vasp.4.4
   GGA_COMPAT  = T    GGA compatible to vasp.4.4-vasp.4.6
   LMAXPAW     = -100 max onsite density
   LMAXMIX     =    2 max onsite mixed and CHGCAR
   VOSKOWN=      0    Vosko Wilk Nusair interpolation
   ROPT   =    0.00000
 Ionic relaxation
   EDIFFG = -.1E-01   stopping-criterion for IOM
   NSW    =      0    number of steps for IOM
   NBLOCK =      1;   KBLOCK =      1    inner block; outer block 
   IBRION =     -1    ionic relax: 0-MD 1-quasi-New 2-CG
   NFREE  =      0    steps in history (QN), initial steepest desc. (CG)
   ISIF   =      0    stress and relaxation
   IWAVPR =     10    prediction:  0-non 1-charg 2-wave 3-comb
   ISYM   =      2    0-nonsym 1-usesym 2-fastsym
   LCORR  =      T    Harris-Foulkes like correction to forces

   POTIM  = 0.5000    time-step for ionic-motion
   TEIN   =    0.0    initial temperature
   TEBEG  =    0.0;   TEEND  =   0.0 temperature during run
   SMASS  =  -3.00    Nose mass-parameter (am)
   estimated Nose-frequenzy (Omega)   =  0.10E-29 period in steps = 0.13E+47 mass=  -0.351E-27a.u.
   SCALEE = 1.0000    scale energy and forces
   NPACO  =    256;   APACO  = 10.0  distance and # of slots for P.C.
   PSTRESS=    0.0 pullay stress

  Mass of Ions in am
   POMASS = 106.42
  Ionic Valenz
   ZVAL   =  16.00
  Atomic Wigner-Seitz radii
   RWIGS  =  -1.00
  virtual crystal weights 
   VCA    =   1.00
   NELECT =      64.0000    total number of electrons
   NUPDOWN=      -1.0000    fix difference up-down

 DOS related values:
   EMIN   =  10.00;   EMAX   =-10.00  energy-range for DOS
   EFERMI =   0.00;   METHOD = LEGACY      
   ISMEAR =     1;   SIGMA  =   0.10  broadening in eV -4-tet -1-fermi 0-gaus

 Electronic relaxation 2 (details)
   IALGO  =     38    algorithm
   LDIAG  =      T    sub-space diagonalisation (order eigenvalues)
   LSUBROT=      F    optimize rotation matrix (better conditioning)
   TURBO    =      0    0=normal 1=particle mesh
   IRESTART =      0    0=no restart 2=restart with 2 vectors
   NREBOOT  =      0    no. of reboots
   NMIN     =      0    reboot dimension
   EREF     =   0.00    reference energy to select bands
   IMIX   =      4    mixing-type and parameters
     AMIX     =   0.40;   BMIX     =  1.00
     AMIX_MAG =   1.60;   BMIX_MAG =  1.00
     AMIN     =   0.10
     WC   =   100.;   INIMIX=   1;  MIXPRE=   1;  MAXMIX= -45

 Intra band minimization:
   WEIMIN = 0.0000     energy-eigenvalue tresh-hold
   EBREAK =  0.62E-08  absolut break condition
   DEPER  =   0.30     relativ break condition  

   TIME   =   0.40     timestep for ELM

  volume/ion in A,a.u.               =      15.03       101.41
  Fermi-wavevector in a.u.,A,eV,Ry     =   1.671659  3.158978 38.020738  2.794445
  Thomas-Fermi vector in A             =   2.756943
 
 Write flags
   LWAVE        =      F    write WAVECAR
   LDOWNSAMPLE  =      F    k-point downsampling of WAVECAR
   LCHARG       =      F    write CHGCAR
   LVTOT        =      F    write LOCPOT, total local potential
   LVHAR        =      F    write LOCPOT, Hartree potential only
   WRT_POTENTIAL= false  ! write potential to hdf5 file
   LELF         =      F    write electronic localiz. function (ELF)
   LORBIT       =     11    0 simple, 1 ext, 2 COOP (PROOUT), +10 PAW based schemes


 Dipole corrections
   LMONO      =      F    monopole corrections only (constant potential shift)
   LDIPOL     =      F    correct potential (dipole corrections)
   IDIPOL     =      0    1-x, 2-y, 3-z, 4-all directions 
   EPSILON    =  1.0000000 bulk dielectric constant
   LVACPOTAV  =      F  vacuum potentials using an averaging scheme for the charge density
   VACPOTFLAT =  0.1000000 required flatness to determine vacuum potential
 Exchange correlation treatment:
   GGA     = PE    functional components
   XC_C    = 1    coefficients multiplying the functional components
   LIBXC   =     F    Libxc                    
   VOSKOWN =     0    Vosko Wilk Nusair interpolation
   LHFCALC =     F    Hartree Fock is set to
   LHFONE  =     F    Hartree Fock one center treatment
   AEXX    =    0.0000 exact exchange contribution

 Parameters of functionals:
   PE:
     No parameter
 
 Van der Waals corrections
   IVDW    =    12    specifies the selected vdW correction

 Linear response parameters
   LEPSILON=     F    determine dielectric tensor
   LRPA    =     F    only Hartree local field effects (RPA)
   LNABLA  =     F    use nabla operator in PAW spheres
   LVEL    =     F    velocity operator in full k-point grid
   CSHIFT  =0.1000    complex shift for real part using Kramers Kronig
   OMEGAMAX=  -1.0    maximum frequency
   DEG_THRESHOLD= 0.2000000E-02 threshold for treating states as degnerate
   RTIME   =   -0.100 relaxation time in fs
  (WPLASMAI=    0.000 imaginary part of plasma frequency in eV, 0.658/RTIME)
   DFIELD  = 0.0000000 0.0000000 0.0000000 field for delta impulse in time
 
  Optional k-point grid parameters
   LKPOINTS_OPT  =     F    use optional k-point grid
   KPOINTS_OPT_MODE=     1    mode for optional k-point grid
 
 Orbital magnetization related:
   ORBITALMAG=     F  switch on orbital magnetization
   LCHIMAG   =     F  perturbation theory with respect to B field
   DQ        =  0.001000  dq finite difference perturbation B field
   LLRAUG    =     F  two centre corrections for induced B field
   LBONE     =     F  B-component reconstruction in AE one-centre
   LVGVCALC  =     T  calculate vGv susceptibility
   LVGVAPPL  =     F  apply vGv susceptibility instead of pGv for G=0

 Random number generation:
   RANDOM_GENERATOR = DEFAULT
   PCG_SEED         = not used


--------------------------------------------------------------------------------------------------------


 Static calculation
 charge density and potential will be updated during run
 spin polarized calculation
 Variant of blocked Davidson
 Davidson routine will perform the subspace rotation
 perform sub-space diagonalisation
    after iterative eigenvector-optimisation
 modified Broyden-mixing scheme, WC =      100.0
 initial mixing is a Kerker type mixing with AMIX =  0.4000 and BMIX =      1.0000
 Hartree-type preconditioning will be used
 using additional bands             8
 reciprocal scheme for non local part
 use partial core corrections
 calculate Harris-corrections to forces 
   (improved forces if not selfconsistent)
 use gradient corrections 
 use of overlap-Matrix (Vanderbilt PP)
 Methfessel and Paxton  Order N= 1 SIGMA  =   0.10


--------------------------------------------------------------------------------------------------------


  energy-cutoff  :      500.00
  volume of cell :       60.11
      direct lattice vectors                 reciprocal lattice vectors
     3.917301575  0.000000000  0.000000000     0.255277767 -0.000000000  0.000000000
     0.000000000  3.917301575  0.000000000     0.000000000  0.255277767  0.000000000
     0.000000000  0.000000000  3.917301575    -0.000000000 -0.000000000  0.255277767

  length of vectors
     3.917301575  3.917301575  3.917301575     0.255277767  0.255277767  0.255277767


 
 k-points in units of 2pi/SCALE and weight: Automatic mesh                          
   0.00000000  0.00000000  0.00000000       0.001
   0.02127315  0.00000000  0.00000000       0.003
   0.04254629  0.00000000  0.00000000       0.003
   0.06381944  0.00000000  0.00000000       0.003
   0.08509259  0.00000000  0.00000000       0.003
   0.10636574  0.00000000  0.00000000       0.003
   0.12763888  0.00000000  0.00000000       0.002
   0.02127315  0.02127315  0.00000000       0.007
   0.04254629  0.02127315  0.00000000       0.014
   0.06381944  0.02127315  0.00000000       0.014
   0.08509259  0.02127315  0.00000000       0.014
   0.10636574  0.02127315  0.00000000       0.014
   0.12763888  0.02127315  0.00000000       0.007
   0.04254629  0.04254629  0.00000000       0.007
   0.06381944  0.04254629  0.00000000       0.014
   0.08509259  0.04254629  0.00000000       0.014
   0.10636574  0.04254629  0.00000000       0.014
   0.12763888  0.04254629  0.00000000       0.007
   0.06381944  0.06381944  0.00000000       0.007
   0.08509259  0.06381944  0.00000000       0.014
   0.10636574  0.06381944  0.00000000       0.014
   0.12763888  0.06381944  0.00000000       0.007
   0.08509259  0.08509259  0.00000000       0.007
   0.10636574  0.08509259  0.00000000       0.014
   0.12763888  0.08509259  0.00000000       0.007
   0.10636574  0.10636574  0.00000000       0.007
   0.12763888  0.10636574  0.00000000       0.007
   0.12763888  0.12763888  0.00000000       0.002
   0.02127315  0.02127315  0.02127315       0.005
   0.04254629  0.02127315  0.02127315       0.014
   0.06381944  0.02127315  0.02127315       0.014
   0.08509259  0.02127315  0.02127315       0.014
   0.10636574  0.02127315  0.02127315       0.014
   0.12763888  0.02127315  0.02127315       0.007
   0.04254629  0.04254629  0.02127315       0.014
   0.06381944  0.04254629  0.02127315       0.028
   0.08509259  0.04254629  0.02127315       0.028
   0.10636574  0.04254629  0.02127315       0.028
   0.12763888  0.04254629  0.02127315       0.014
   0.06381944  0.06381944  0.02127315       0.014
   0.08509259  0.06381944  0.02127315       0.028
   0.10636574  0.06381944  0.02127315       0.028
   0.12763888  0.06381944  0.02127315       0.014
   0.08509259  0.08509259  0.02127315       0.014
   0.10636574  0.08509259  0.02127315       0.028
   0.12763888  0.08509259  0.02127315       0.014
   0.10636574  0.10636574  0.02127315       0.014
   0.12763888  0.10636574  0.02127315       0.014
   0.12763888  0.12763888  0.02127315       0.003
   0.04254629  0.04254629  0.04254629       0.005
   0.06381944  0.04254629  0.04254629       0.014
   0.08509259  0.04254629  0.04254629       0.014
   0.10636574  0.04254629  0.04254629       0.014
   0.12763888  0.04254629  0.04254629       0.007
   0.06381944  0.06381944  0.04254629       0.014
   0.08509259  0.06381944  0.04254629       0.028
   0.10636574  0.06381944  0.04254629       0.028
   0.12763888  0.06381944  0.04254629       0.014
   0.08509259  0.08509259  0.04254629       0.014
   0.10636574  0.08509259  0.04254629       0.028
   0.12763888  0.08509259  0.04254629       0.014
   0.10636574  0.10636574  0.04254629       0.014
   0.12763888  0.10636574  0.04254629       0.014
   0.12763888  0.12763888  0.04254629       0.003
   0.06381944  0.06381944  0.06381944       0.005
   0.08509259  0.06381944  0.06381944       0.014
   0.10636574  0.06381944  0.06381944       0.014
   0.12763888  0.06381944  0.06381944       0.007
   0.08509259  0.08509259  0.06381944       0.014
   0.10636574  0.08509259  0.06381944       0.028
   0.12763888  0.08509259  0.06381944       0.014
   0.10636574  0.10636574  0.06381944       0.014
   0.12763888  0.10636574  0.06381944       0.014
   0.12763888  0.12763888  0.06381944       0.003
   0.08509259  0.08509259  0.08509259       0.005
   0.10636574  0.08509259  0.08509259       0.014
   0.12763888  0.08509259  0.08509259       0.007
   0.10636574  0.10636574  0.08509259       0.014
   0.12763888  0.10636574  0.08509259       0.014
   0.12763888  0.12763888  0.08509259       0.003
   0.10636574  0.10636574  0.10636574       0.005
   0.12763888  0.10636574  0.10636574       0.007
   0.12763888  0.12763888  0.10636574       0.003
   0.12763888  0.12763888  0.12763888       0.001
 
 k-points in reciprocal lattice and weights: Automatic mesh                          
   0.00000000  0.00000000  0.00000000       0.001
   0.08333333  0.00000000  0.00000000       0.003
   0.16666667  0.00000000  0.00000000       0.003
   0.25000000  0.00000000  0.00000000       0.003
   0.33333333  0.00000000  0.00000000       0.003
   0.41666667  0.00000000  0.00000000       0.003
   0.50000000  0.00000000  0.00000000       0.002
   0.08333333  0.08333333  0.00000000       0.007
   0.16666667  0.08333333  0.00000000       0.014
   0.25000000  0.08333333  0.00000000       0.014
   0.33333333  0.08333333  0.00000000       0.014
   0.41666667  0.08333333  0.00000000       0.014
   0.50000000  0.08333333  0.00000000       0.007
   0.16666667  0.16666667  0.00000000       0.007
   0.25000000  0.16666667  0.00000000       0.014
   0.33333333  0.16666667  0.00000000       0.014
   0.41666667  0.16666667  0.00000000       0.014
   0.50000000  0.16666667  0.00000000       0.007
   0.25000000  0.25000000  0.00000000       0.007
   0.33333333  0.25000000  0.00000000       0.014
   0.41666667  0.25000000  0.00000000       0.014
   0.50000000  0.25000000  0.00000000       0.007
   0.33333333  0.33333333  0.00000000       0.007
   0.41666667  0.33333333  0.00000000       0.014
   0.50000000  0.33333333  0.00000000       0.007
   0.41666667  0.41666667  0.00000000       0.007
   0.50000000  0.41666667  0.00000000       0.007
   0.50000000  0.50000000  0.00000000       0.002
   0.08333333  0.08333333  0.08333333       0.005
   0.16666667  0.08333333  0.08333333       0.014
   0.25000000  0.08333333  0.08333333       0.014
   0.33333333  0.08333333  0.08333333       0.014
   0.41666667  0.08333333  0.08333333       0.014
   0.50000000  0.08333333  0.08333333       0.007
   0.16666667  0.16666667  0.08333333       0.014
   0.25000000  0.16666667  0.08333333       0.028
   0.33333333  0.16666667  0.08333333       0.028
   0.41666667  0.16666667  0.08333333       0.028
   0.50000000  0.16666667  0.08333333       0.014
   0.25000000  0.25000000  0.08333333       0.014
   0.33333333  0.25000000  0.08333333       0.028
   0.41666667  0.25000000  0.08333333       0.028
   0.50000000  0.25000000  0.08333333       0.014
   0.33333333  0.33333333  0.08333333       0.014
   0.41666667  0.33333333  0.08333333       0.028
   0.50000000  0.33333333  0.08333333       0.014
   0.41666667  0.41666667  0.08333333       0.014
   0.50000000  0.41666667  0.08333333       0.014
   0.50000000  0.50000000  0.08333333       0.003
   0.16666667  0.16666667  0.16666667       0.005
   0.25000000  0.16666667  0.16666667       0.014
   0.33333333  0.16666667  0.16666667       0.014
   0.41666667  0.16666667  0.16666667       0.014
   0.50000000  0.16666667  0.16666667       0.007
   0.25000000  0.25000000  0.16666667       0.014
   0.33333333  0.25000000  0.16666667       0.028
   0.41666667  0.25000000  0.16666667       0.028
   0.50000000  0.25000000  0.16666667       0.014
   0.33333333  0.33333333  0.16666667       0.014
   0.41666667  0.33333333  0.16666667       0.028
   0.50000000  0.33333333  0.16666667       0.014
   0.41666667  0.41666667  0.16666667       0.014
   0.50000000  0.41666667  0.16666667       0.014
   0.50000000  0.50000000  0.16666667       0.003
   0.25000000  0.25000000  0.25000000       0.005
   0.33333333  0.25000000  0.25000000       0.014
   0.41666667  0.25000000  0.25000000       0.014
   0.50000000  0.25000000  0.25000000       0.007
   0.33333333  0.33333333  0.25000000       0.014
   0.41666667  0.33333333  0.25000000       0.028
   0.50000000  0.33333333  0.25000000       0.014
   0.41666667  0.41666667  0.25000000       0.014
   0.50000000  0.41666667  0.25000000       0.014
   0.50000000  0.50000000  0.25000000       0.003
   0.33333333  0.33333333  0.33333333       0.005
   0.41666667  0.33333333  0.33333333       0.014
   0.50000000  0.33333333  0.33333333       0.007
   0.41666667  0.41666667  0.33333333       0.014
   0.50000000  0.41666667  0.33333333       0.014
   0.50000000  0.50000000  0.33333333       0.003
   0.41666667  0.41666667  0.41666667       0.005
   0.50000000  0.41666667  0.41666667       0.007
   0.50000000  0.50000000  0.41666667       0.003
   0.50000000  0.50000000  0.50000000       0.001
 
 position of ions in fractional coordinates (direct lattice) 
   0.00000000  0.00000000  0.00000000
   0.00000000  0.50000000  0.50000000
   0.50000000  0.00000000  0.50000000
   0.50000000  0.50000000  0.00000000
 
 position of ions in cartesian coordinates  (Angst):
   0.00000000  0.00000000  0.00000000
   0.00000000  1.95865079  1.95865079
   1.95865079  0.00000000  1.95865079
   1.95865079  1.95865079  0.00000000
 


--------------------------------------------------------------------------------------------------------


 k-point     1 :   0.0000 0.0000 0.0000  plane waves:    1551
 k-point     2 :   0.0833 0.0000 0.0000  plane waves:    1527
 k-point     3 :   0.1667 0.0000 0.0000  plane waves:    1498
 k-point     4 :   0.2500 0.0000 0.0000  plane waves:    1514
 k-point     5 :   0.3333 0.0000 0.0000  plane waves:    1526
 k-point     6 :   0.4167 0.0000 0.0000  plane waves:    1514
 k-point     7 :   0.5000 0.0000 0.0000  plane waves:    1510
 k-point     8 :   0.0833 0.0833 0.0000  plane waves:    1504
 k-point     9 :   0.1667 0.0833 0.0000  plane waves:    1510
 k-point    10 :   0.2500 0.0833 0.0000  plane waves:    1519
 k-point    11 :   0.3333 0.0833 0.0000  plane waves:    1518
 k-point    12 :   0.4167 0.0833 0.0000  plane waves:    1514
 k-point    13 :   0.5000 0.0833 0.0000  plane waves:    1514
 k-point    14 :   0.1667 0.1667 0.0000  plane waves:    1514
 k-point    15 :   0.2500 0.1667 0.0000  plane waves:    1522
 k-point    16 :   0.3333 0.1667 0.0000  plane waves:    1525
 k-point    17 :   0.4167 0.1667 0.0000  plane waves:    1529
 k-point    18 :   0.5000 0.1667 0.0000  plane waves:    1532
 k-point    19 :   0.2500 0.2500 0.0000  plane waves:    1526
 k-point    20 :   0.3333 0.2500 0.0000  plane waves:    1537
 k-point    21 :   0.4167 0.2500 0.0000  plane waves:    1531
 k-point    22 :   0.5000 0.2500 0.0000  plane waves:    1526
 k-point    23 :   0.3333 0.3333 0.0000  plane waves:    1532
 k-point    24 :   0.4167 0.3333 0.0000  plane waves:    1535
 k-point    25 :   0.5000 0.3333 0.0000  plane waves:    1532
 k-point    26 :   0.4167 0.4167 0.0000  plane waves:    1524
 k-point    27 :   0.5000 0.4167 0.0000  plane waves:    1532
 k-point    28 :   0.5000 0.5000 0.0000  plane waves:    1516
 k-point    29 :   0.0833 0.0833 0.0833  plane waves:    1506
 k-point    30 :   0.1667 0.0833 0.0833  plane waves:    1507
 k-point    31 :   0.2500 0.0833 0.0833  plane waves:    1513
 k-point    32 :   0.3333 0.0833 0.0833  plane waves:    1521
 k-point    33 :   0.4167 0.0833 0.0833  plane waves:    1518
 k-point    34 :   0.5000 0.0833 0.0833  plane waves:    1528
 k-point    35 :   0.1667 0.1667 0.0833  plane waves:    1514
 k-point    36 :   0.2500 0.1667 0.0833  plane waves:    1526
 k-point    37 :   0.3333 0.1667 0.0833  plane waves:    1528
 k-point    38 :   0.4167 0.1667 0.0833  plane waves:    1521
 k-point    39 :   0.5000 0.1667 0.0833  plane waves:    1522
 k-point    40 :   0.2500 0.2500 0.0833  plane waves:    1531
 k-point    41 :   0.3333 0.2500 0.0833  plane waves:    1523
 k-point    42 :   0.4167 0.2500 0.0833  plane waves:    1530
 k-point    43 :   0.5000 0.2500 0.0833  plane waves:    1534
 k-point    44 :   0.3333 0.3333 0.0833  plane waves:    1534
 k-point    45 :   0.4167 0.3333 0.0833  plane waves:    1539
 k-point    46 :   0.5000 0.3333 0.0833  plane waves:    1538
 k-point    47 :   0.4167 0.4167 0.0833  plane waves:    1536
 k-point    48 :   0.5000 0.4167 0.0833  plane waves:    1538
 k-point    49 :   0.5000 0.5000 0.0833  plane waves:    1540
 k-point    50 :   0.1667 0.1667 0.1667  plane waves:    1514
 k-point    51 :   0.2500 0.1667 0.1667  plane waves:    1518
 k-point    52 :   0.3333 0.1667 0.1667  plane waves:    1526
 k-point    53 :   0.4167 0.1667 0.1667  plane waves:    1528
 k-point    54 :   0.5000 0.1667 0.1667  plane waves:    1538
 k-point    55 :   0.2500 0.2500 0.1667  plane waves:    1531
 k-point    56 :   0.3333 0.2500 0.1667  plane waves:    1528
 k-point    57 :   0.4167 0.2500 0.1667  plane waves:    1527
 k-point    58 :   0.5000 0.2500 0.1667  plane waves:    1528
 k-point    59 :   0.3333 0.3333 0.1667  plane waves:    1531
 k-point    60 :   0.4167 0.3333 0.1667  plane waves:    1526
 k-point    61 :   0.5000 0.3333 0.1667  plane waves:    1526
 k-point    62 :   0.4167 0.4167 0.1667  plane waves:    1522
 k-point    63 :   0.5000 0.4167 0.1667  plane waves:    1534
 k-point    64 :   0.5000 0.5000 0.1667  plane waves:    1532
 k-point    65 :   0.2500 0.2500 0.2500  plane waves:    1520
 k-point    66 :   0.3333 0.2500 0.2500  plane waves:    1521
 k-point    67 :   0.4167 0.2500 0.2500  plane waves:    1528
 k-point    68 :   0.5000 0.2500 0.2500  plane waves:    1528
 k-point    69 :   0.3333 0.3333 0.2500  plane waves:    1521
 k-point    70 :   0.4167 0.3333 0.2500  plane waves:    1517
 k-point    71 :   0.5000 0.3333 0.2500  plane waves:    1526
 k-point    72 :   0.4167 0.4167 0.2500  plane waves:    1525
 k-point    73 :   0.5000 0.4167 0.2500  plane waves:    1526
 k-point    74 :   0.5000 0.5000 0.2500  plane waves:    1528
 k-point    75 :   0.3333 0.3333 0.3333  plane waves:    1532
 k-point    76 :   0.4167 0.3333 0.3333  plane waves:    1522
 k-point    77 :   0.5000 0.3333 0.3333  plane waves:    1522
 k-point    78 :   0.4167 0.4167 0.3333  plane waves:    1529
 k-point    79 :   0.5000 0.4167 0.3333  plane waves:    1526
 k-point    80 :   0.5000 0.5000 0.3333  plane waves:    1536
 k-point    81 :   0.4167 0.4167 0.4167  plane waves:    1535
 k-point    82 :   0.5000 0.4167 0.4167  plane waves:    1528
 k-point    83 :   0.5000 0.5000 0.4167  plane waves:    1536
 k-point    84 :   0.5000 0.5000 0.5000  plane waves:    1568

 maximum and minimum number of plane-waves per node :      1568     1498

 maximum number of plane-waves:      1568
 maximum index in each direction: 
   IXMAX=    7   IYMAX=    7   IZMAX=    7
   IXMIN=   -7   IYMIN=   -7   IZMIN=   -7


 serial   3D FFT for wavefunctions
 parallel 3D FFT for charge:
    minimum data exchange during FFTs selected (reduces bandwidth)


 total amount of memory used by VASP MPI-rank0   107568. kBytes
=======================================================================

   base      :      30000. kBytes
   nonl-proj :      19066. kBytes
   fftplans  :       8118. kBytes
   grid      :       6177. kBytes
   one-center:        124. kBytes
   wavefun   :      44083. kBytes
 
     INWAV:  cpu time      0.0000: real time      0.0001
 Broyden mixing: mesh for mixing (old mesh)
   NGX = 15   NGY = 15   NGZ = 15
  (NGX  = 60   NGY  = 60   NGZ  = 60)
  gives a total of   3375 points

 initial charge density was supplied:
 charge density of overlapping atoms calculated
 number of electron      64.0000000 magnetization       4.0000000
 keeping initial charge density in first step


--------------------------------------------------------------------------------------------------------


 Maximum index for augmentation-charges         34825 (set IRDMAX)


--------------------------------------------------------------------------------------------------------


 First call to EWALD:  gamma=   0.452
 Maximum number of real-space cells 3x 3x 3
 Maximum number of reciprocal cells 3x 3x 3

    FEWALD:  cpu time      0.0004: real time      0.0004


--------------------------------------- Ionic step        1  -------------------------------------------




--------------------------------------- Iteration      1(   1)  ---------------------------------------


    POTLOK:  cpu time      0.0444: real time      0.0444
    SETDIJ:  cpu time      0.5250: real time      0.5251
     EDDAV:  cpu time      6.4568: real time      6.4573
       DOS:  cpu time      0.0011: real time      0.0011
    --------------------------------------------
      LOOP:  cpu time      7.0273: real time      7.0279

 eigenvalue-minimisations  : 13928
 total energy-change (2. order) : 0.7658038E+03  (-0.3913380E+04)
 number of electron      64.0000000 magnetization       4.0000000
 augmentation part       64.0000000 magnetization       4.0000000

 Free energy of the ion-electron system (eV)
  ---------------------------------------------------
  alpha Z        PSCENC =       542.73305656
  Ewald energy   TEWEN  =     -8629.09612564
  -Hartree energ DENC   =     -2225.92554515
  -exchange      EXHF   =         0.00000000
  -V(xc)+E(xc)   XCENC  =       331.53594691
  PAW double counting   =      9031.68406025    -8916.38598993
  entropy T*S    EENTRO =         0.00001399
  eigenvalues    EBANDS =       145.07509031
  atomic energy  EATOM  =     10486.18329226
  Solvation  Ediel_sol  =         0.00000000
  ---------------------------------------------------
  free energy    TOTEN  =       765.80379955 eV

  energy without entropy =      765.80378557  energy(sigma->0) =      765.80379489


--------------------------------------------------------------------------------------------------------




--------------------------------------- Iteration      1(   2)  ---------------------------------------


     EDDAV:  cpu time      5.8626: real time      5.8631
       DOS:  cpu time      0.0012: real time      0.0012
    --------------------------------------------
      LOOP:  cpu time      5.8638: real time      5.8643

 eigenvalue-minimisations  : 14064
 total energy-change (2. order) :-0.7594864E+03  (-0.7320025E+03)
 number of electron      64.0000000 magnetization       4.0000000
 augmentation part       64.0000000 magnetization       4.0000000

 Free energy of the ion-electron system (eV)
  ---------------------------------------------------
  alpha Z        PSCENC =       542.73305656
  Ewald energy   TEWEN  =     -8629.09612564
  -Hartree energ DENC   =     -2225.92554515
  -exchange      EXHF   =         0.00000000
  -V(xc)+E(xc)   XCENC  =       331.53594691
  PAW double counting   =      9031.68406025    -8916.38598993
  entropy T*S    EENTRO =        -0.00060631
  eigenvalues    EBANDS =      -614.41071571
  atomic energy  EATOM  =     10486.18329226
  Solvation  Ediel_sol  =         0.00000000
  ---------------------------------------------------
  free energy    TOTEN  =         6.31737324 eV

  energy without entropy =        6.31797955  energy(sigma->0) =        6.31757534


--------------------------------------------------------------------------------------------------------




--------------------------------------- Iteration      1(   3)  ---------------------------------------


     EDDAV:  cpu time      5.8585: real time      5.8627
       DOS:  cpu time      0.0012: real time      0.0012
    --------------------------------------------
      LOOP:  cpu time      5.8598: real time      5.8639

 eigenvalue-minimisations  : 15000
 total energy-change (2. order) :-0.2770999E+02  (-0.2708291E+02)
 number of electron      64.0000000 magnetization       4.0000000
 augmentation part       64.0000000 magnetization       4.0000000

 Free energy of the ion-electron system (eV)
  ---------------------------------------------------
  alpha Z        PSCENC =       542.73305656
  Ewald energy   TEWEN  =     -8629.09612564
  -Hartree energ DENC   =     -2225.92554515
  -exchange      EXHF   =         0.00000000
  -V(xc)+E(xc)   XCENC  =       331.53594691
  PAW double counting   =      9031.68406025    -8916.38598993
  entropy T*S    EENTRO =         0.00148298
  eigenvalues    EBANDS =      -642.12279629
  atomic energy  EATOM  =     10486.18329226
  Solvation  Ediel_sol  =         0.00000000
  ---------------------------------------------------
  free energy    TOTEN  =       -21.39261805 eV

  energy without entropy =      -21.39410103  energy(sigma->0) =      -21.39311238


--------------------------------------------------------------------------------------------------------




--------------------------------------- Iteration      1(   4)  ---------------------------------------


     EDDAV:  cpu time      5.6550: real time      5.6557
       DOS:  cpu time      0.0013: real time      0.0013
    --------------------------------------------
      LOOP:  cpu time      5.6563: real time      5.6570

 eigenvalue-minimisations  : 14288
 total energy-change (2. order) :-0.3004904E+00  (-0.3004271E+00)
 number of electron      64.0000000 magnetization       4.0000000
 augmentation part       64.0000000 magnetization       4.0000000

 Free energy of the ion-electron system (eV)
  ---------------------------------------------------
  alpha Z        PSCENC =       542.73305656
  Ewald energy   TEWEN  =     -8629.09612564
  -Hartree energ DENC   =     -2225.92554515
  -exchange      EXHF   =         0.00000000
  -V(xc)+E(xc)   XCENC  =       331.53594691
  PAW double counting   =      9031.68406025    -8916.38598993
  entropy T*S    EENTRO =         0.00147220
  eigenvalues    EBANDS =      -642.42327594
  atomic energy  EATOM  =     10486.18329226
  Solvation  Ediel_sol  =         0.00000000
  ---------------------------------------------------
  free energy    TOTEN  =       -21.69310848 eV

  energy without entropy =      -21.69458068  energy(sigma->0) =      -21.69359922


--------------------------------------------------------------------------------------------------------




--------------------------------------- Iteration      1(   5)  ---------------------------------------


     EDDAV:  cpu time      5.8594: real time      5.8599
       DOS:  cpu time      0.0012: real time      0.0012
    CHARGE:  cpu time      0.5418: real time      0.5418
    MIXING:  cpu time      0.0013: real time      0.0013
    --------------------------------------------
      LOOP:  cpu time      6.4037: real time      6.4042

 eigenvalue-minimisations  : 14984
 total energy-change (2. order) :-0.4889017E-02  (-0.4888959E-02)
 number of electron      64.0000003 magnetization       1.8392602
 augmentation part       29.8755739 magnetization       1.0182452

 Broyden mixing:
  rms(total) = 0.10811E+01    rms(broyden)= 0.10811E+01
  rms(prec ) = 0.18652E+01
  weight for this iteration     100.00

 Free energy of the ion-electron system (eV)
  ---------------------------------------------------
  alpha Z        PSCENC =       542.73305656
  Ewald energy   TEWEN  =     -8629.09612564
  -Hartree energ DENC   =     -2225.92554515
  -exchange      EXHF   =         0.00000000
  -V(xc)+E(xc)   XCENC  =       331.53594691
  PAW double counting   =      9031.68406025    -8916.38598993
  entropy T*S    EENTRO =         0.00147211
  eigenvalues    EBANDS =      -642.42816487
  atomic energy  EATOM  =     10486.18329226
  Solvation  Ediel_sol  =         0.00000000
  ---------------------------------------------------
  free energy    TOTEN  =       -21.69799750 eV

  energy without entropy =      -21.69946962  energy(sigma->0) =      -21.69848821


--------------------------------------------------------------------------------------------------------




--------------------------------------- Iteration      1(   6)  ---------------------------------------


    POTLOK:  cpu time      0.0396: real time      0.0397
    SETDIJ:  cpu time      0.4170: real time      0.4170
     EDDAV:  cpu time      5.6833: real time      5.6845
       DOS:  cpu time      0.0012: real time      0.0012
    CHARGE:  cpu time      0.5443: real time      0.5443
    MIXING:  cpu time      0.0012: real time      0.0012
    --------------------------------------------
      LOOP:  cpu time      6.6867: real time      6.6879

 eigenvalue-minimisations  : 14456
 total energy-change (2. order) : 0.8685801E+00  (-0.3752777E+00)
 number of electron      64.0000003 magnetization       1.5097458
 augmentation part       30.6984033 magnetization       0.9147413

 Broyden mixing:
  rms(total) = 0.22840E+00    rms(broyden)= 0.22838E+00
  rms(prec ) = 0.27482E+00
  weight for this iteration     100.00

 eigenvalues of (default mixing * dielectric matrix)
  average eigenvalue GAMMA=   1.0111
  1.0111

 Free energy of the ion-electron system (eV)
  ---------------------------------------------------
  alpha Z        PSCENC =       542.73305656
  Ewald energy   TEWEN  =     -8629.09612564
  -Hartree energ DENC   =     -2157.21071515
  -exchange      EXHF   =         0.00000000
  -V(xc)+E(xc)   XCENC  =       328.31768031
  PAW double counting   =      9250.71152212    -9143.19903551
  entropy T*S    EENTRO =         0.00076462
  eigenvalues    EBANDS =      -699.26985692
  atomic energy  EATOM  =     10486.18329226
  Solvation  Ediel_sol  =         0.00000000
  ---------------------------------------------------
  free energy    TOTEN  =       -20.82941736 eV

  energy without entropy =      -20.83018198  energy(sigma->0) =      -20.82967223


--------------------------------------------------------------------------------------------------------




--------------------------------------- Iteration      1(   7)  ---------------------------------------


    POTLOK:  cpu time      0.0402: real time      0.0403
    SETDIJ:  cpu time      0.4156: real time      0.4156
     EDDAV:  cpu time      5.6828: real time      5.6839
       DOS:  cpu time      0.0012: real time      0.0012
    CHARGE:  cpu time      0.5447: real time      0.5448
    MIXING:  cpu time      0.0013: real time      0.0013
    --------------------------------------------
      LOOP:  cpu time      6.6857: real time      6.6871

 eigenvalue-minimisations  : 14400
 total energy-change (2. order) : 0.8719569E-03  (-0.3888203E-02)
 number of electron      64.0000003 magnetization       1.2845793
 augmentation part       30.6837054 magnetization       0.8065341

 Broyden mixing:
  rms(total) = 0.15190E+00    rms(broyden)= 0.15190E+00
  rms(prec ) = 0.17864E+00
  weight for this iteration     100.00

 eigenvalues of (default mixing * dielectric matrix)
  average eigenvalue GAMMA=   0.9698
  1.2919  0.6477

 Free energy of the ion-electron system (eV)
  ---------------------------------------------------
  alpha Z        PSCENC =       542.73305656
  Ewald energy   TEWEN  =     -8629.09612564
  -Hartree energ DENC   =     -2156.44482188
  -exchange      EXHF   =         0.00000000
  -V(xc)+E(xc)   XCENC  =       328.26690003
  PAW double counting   =      9380.93072386    -9274.73812501
  entropy T*S    EENTRO =        -0.00028856
  eigenvalues    EBANDS =      -698.66315703
  atomic energy  EATOM  =     10486.18329226
  Solvation  Ediel_sol  =         0.00000000
  ---------------------------------------------------
  free energy    TOTEN  =       -20.82854540 eV

  energy without entropy =      -20.82825684  energy(sigma->0) =      -20.82844922


--------------------------------------------------------------------------------------------------------




--------------------------------------- Iteration      1(   8)  ---------------------------------------


    POTLOK:  cpu time      0.0403: real time      0.0404
    SETDIJ:  cpu time      0.4169: real time      0.4169
     EDDAV:  cpu time      5.7756: real time      5.7768
       DOS:  cpu time      0.0012: real time      0.0012
    CHARGE:  cpu time      0.5449: real time      0.5450
    MIXING:  cpu time      0.0014: real time      0.0014
    --------------------------------------------
      LOOP:  cpu time      6.7803: real time      6.7817

 eigenvalue-minimisations  : 14768
 total energy-change (2. order) : 0.1518905E-02  (-0.4515330E-03)
 number of electron      64.0000003 magnetization       1.0892738
 augmentation part       30.6844864 magnetization       0.6458673

 Broyden mixing:
  rms(total) = 0.83513E-01    rms(broyden)= 0.83512E-01
  rms(prec ) = 0.97364E-01
  weight for this iteration     100.00

 eigenvalues of (default mixing * dielectric matrix)
  average eigenvalue GAMMA=   1.2694
  2.2702  0.9243  0.6136

 Free energy of the ion-electron system (eV)
  ---------------------------------------------------
  alpha Z        PSCENC =       542.73305656
  Ewald energy   TEWEN  =     -8629.09612564
  -Hartree energ DENC   =     -2155.08479794
  -exchange      EXHF   =         0.00000000
  -V(xc)+E(xc)   XCENC  =       328.18989469
  PAW double counting   =      9473.16763081    -9367.76792210
  entropy T*S    EENTRO =        -0.00052598
  eigenvalues    EBANDS =      -699.15152917
  atomic energy  EATOM  =     10486.18329226
  Solvation  Ediel_sol  =         0.00000000
  ---------------------------------------------------
  free energy    TOTEN  =       -20.82702650 eV

  energy without entropy =      -20.82650052  energy(sigma->0) =      -20.82685117


--------------------------------------------------------------------------------------------------------




--------------------------------------- Iteration      1(   9)  ---------------------------------------


    POTLOK:  cpu time      0.0401: real time      0.0402
    SETDIJ:  cpu time      0.4173: real time      0.4173
     EDDAV:  cpu time      5.6543: real time      5.6557
       DOS:  cpu time      0.0013: real time      0.0013
    CHARGE:  cpu time      0.5431: real time      0.5431
    MIXING:  cpu time      0.0015: real time      0.0015
    --------------------------------------------
      LOOP:  cpu time      6.6576: real time      6.6590

 eigenvalue-minimisations  : 14328
 total energy-change (2. order) :-0.5223127E-03  (-0.2573817E-03)
 number of electron      64.0000003 magnetization       1.0681498
 augmentation part       30.6872698 magnetization       0.6841582

 Broyden mixing:
  rms(total) = 0.86386E-02    rms(broyden)= 0.86296E-02
  rms(prec ) = 0.99337E-02
  weight for this iteration     100.00

 eigenvalues of (default mixing * dielectric matrix)
  average eigenvalue GAMMA=   1.2525
  2.5842  0.9519  0.8589  0.6152

 Free energy of the ion-electron system (eV)
  ---------------------------------------------------
  alpha Z        PSCENC =       542.73305656
  Ewald energy   TEWEN  =     -8629.09612564
  -Hartree energ DENC   =     -2153.57494171
  -exchange      EXHF   =         0.00000000
  -V(xc)+E(xc)   XCENC  =       328.11217526
  PAW double counting   =      9576.77740939    -9472.11968446
  entropy T*S    EENTRO =        -0.00049383
  eigenvalues    EBANDS =      -699.84223665
  atomic energy  EATOM  =     10486.18329226
  Solvation  Ediel_sol  =         0.00000000
  ---------------------------------------------------
  free energy    TOTEN  =       -20.82754881 eV

  energy without entropy =      -20.82705498  energy(sigma->0) =      -20.82738420


--------------------------------------------------------------------------------------------------------




--------------------------------------- Iteration      1(  10)  ---------------------------------------


    POTLOK:  cpu time      0.0397: real time      0.0397
    SETDIJ:  cpu time      0.4155: real time      0.4155
     EDDAV:  cpu time      5.8723: real time      5.8732
       DOS:  cpu time      0.0012: real time      0.0012
    CHARGE:  cpu time      0.5437: real time      0.5438
    MIXING:  cpu time      0.0020: real time      0.0020
    --------------------------------------------
      LOOP:  cpu time      6.8744: real time      6.8755

 eigenvalue-minimisations  : 15104
 total energy-change (2. order) :-0.2484494E-03  (-0.2948973E-04)
 number of electron      64.0000003 magnetization       1.0480188
 augmentation part       30.6886444 magnetization       0.6741129

 Broyden mixing:
  rms(total) = 0.84163E-02    rms(broyden)= 0.84146E-02
  rms(prec ) = 0.93796E-02
  weight for this iteration     100.00

 eigenvalues of (default mixing * dielectric matrix)
  average eigenvalue GAMMA=   1.0958
  2.5970  0.9428  0.9428  0.6074  0.3890

 Free energy of the ion-electron system (eV)
  ---------------------------------------------------
  alpha Z        PSCENC =       542.73305656
  Ewald energy   TEWEN  =     -8629.09612564
  -Hartree energ DENC   =     -2153.61682370
  -exchange      EXHF   =         0.00000000
  -V(xc)+E(xc)   XCENC  =       328.11263958
  PAW double counting   =      9581.39491480    -9476.61738216
  entropy T*S    EENTRO =        -0.00045156
  eigenvalues    EBANDS =      -699.92091739
  atomic energy  EATOM  =     10486.18329226
  Solvation  Ediel_sol  =         0.00000000
  ---------------------------------------------------
  free energy    TOTEN  =       -20.82779726 eV

  energy without entropy =      -20.82734570  energy(sigma->0) =      -20.82764674


--------------------------------------------------------------------------------------------------------




--------------------------------------- Iteration      1(  11)  ---------------------------------------


    POTLOK:  cpu time      0.0400: real time      0.0401
    SETDIJ:  cpu time      0.4174: real time      0.4174
     EDDAV:  cpu time      5.7138: real time      5.7145
       DOS:  cpu time      0.0012: real time      0.0012
    CHARGE:  cpu time      0.5350: real time      0.5353
    MIXING:  cpu time      0.0014: real time      0.0014
    --------------------------------------------
      LOOP:  cpu time      6.7087: real time      6.7098

 eigenvalue-minimisations  : 14664
 total energy-change (2. order) :-0.5041178E-04  (-0.2697489E-05)
 number of electron      64.0000003 magnetization       0.9694339
 augmentation part       30.6887151 magnetization       0.6012296

 Broyden mixing:
  rms(total) = 0.67946E-02    rms(broyden)= 0.67942E-02
  rms(prec ) = 0.74805E-02
  weight for this iteration     100.00

 eigenvalues of (default mixing * dielectric matrix)
  average eigenvalue GAMMA=   1.5457
  3.2692  2.5167  1.1727  0.9694  0.6199  0.7264

 Free energy of the ion-electron system (eV)
  ---------------------------------------------------
  alpha Z        PSCENC =       542.73305656
  Ewald energy   TEWEN  =     -8629.09612564
  -Hartree energ DENC   =     -2153.71065170
  -exchange      EXHF   =         0.00000000
  -V(xc)+E(xc)   XCENC  =       328.11562882
  PAW double counting   =      9582.52474257    -9477.65693014
  entropy T*S    EENTRO =        -0.00039575
  eigenvalues    EBANDS =      -699.92046467
  atomic energy  EATOM  =     10486.18329226
  Solvation  Ediel_sol  =         0.00000000
  ---------------------------------------------------
  free energy    TOTEN  =       -20.82784767 eV

  energy without entropy =      -20.82745193  energy(sigma->0) =      -20.82771576


--------------------------------------------------------------------------------------------------------




--------------------------------------- Iteration      1(  12)  ---------------------------------------


    POTLOK:  cpu time      0.0398: real time      0.0399
    SETDIJ:  cpu time      0.4181: real time      0.4181
     EDDAV:  cpu time      5.8572: real time      5.8583
       DOS:  cpu time      0.0012: real time      0.0012
    CHARGE:  cpu time      0.5443: real time      0.5445
    MIXING:  cpu time      0.0015: real time      0.0015
    --------------------------------------------
      LOOP:  cpu time      6.8621: real time      6.8634

 eigenvalue-minimisations  : 14160
 total energy-change (2. order) :-0.6614737E-04  (-0.1526056E-04)
 number of electron      64.0000003 magnetization       0.9652530
 augmentation part       30.6884242 magnetization       0.6175907

 Broyden mixing:
  rms(total) = 0.86497E-03    rms(broyden)= 0.85487E-03
  rms(prec ) = 0.10670E-02
  weight for this iteration     100.00

 eigenvalues of (default mixing * dielectric matrix)
  average eigenvalue GAMMA=   1.4621
  3.5085  2.5220  1.1796  0.9636  0.7487  0.6236  0.6887

 Free energy of the ion-electron system (eV)
  ---------------------------------------------------
  alpha Z        PSCENC =       542.73305656
  Ewald energy   TEWEN  =     -8629.09612564
  -Hartree energ DENC   =     -2153.99968022
  -exchange      EXHF   =         0.00000000
  -V(xc)+E(xc)   XCENC  =       328.12465113
  PAW double counting   =      9584.73851501    -9479.62946228
  entropy T*S    EENTRO =        -0.00015952
  eigenvalues    EBANDS =      -699.88200112
  atomic energy  EATOM  =     10486.18329226
  Solvation  Ediel_sol  =         0.00000000
  ---------------------------------------------------
  free energy    TOTEN  =       -20.82791382 eV

  energy without entropy =      -20.82775430  energy(sigma->0) =      -20.82786065


--------------------------------------------------------------------------------------------------------




--------------------------------------- Iteration      1(  13)  ---------------------------------------


    POTLOK:  cpu time      0.0397: real time      0.0398
    SETDIJ:  cpu time      0.4167: real time      0.4198
     EDDAV:  cpu time      5.4947: real time      5.4954
       DOS:  cpu time      0.0012: real time      0.0012
    CHARGE:  cpu time      0.5437: real time      0.5438
    MIXING:  cpu time      0.0013: real time      0.0013
    --------------------------------------------
      LOOP:  cpu time      6.4973: real time      6.5012

 eigenvalue-minimisations  : 12488
 total energy-change (2. order) :-0.6040444E-05  (-0.4194066E-06)
 number of electron      64.0000003 magnetization       0.9616902
 augmentation part       30.6884595 magnetization       0.6151602

 Broyden mixing:
  rms(total) = 0.58256E-03    rms(broyden)= 0.58135E-03
  rms(prec ) = 0.73582E-03
  weight for this iteration     100.00

 eigenvalues of (default mixing * dielectric matrix)
  average eigenvalue GAMMA=   1.3782
  3.6789  2.5256  1.1761  0.9420  0.7614  0.6173  0.6621  0.6621

 Free energy of the ion-electron system (eV)
  ---------------------------------------------------
  alpha Z        PSCENC =       542.73305656
  Ewald energy   TEWEN  =     -8629.09612564
  -Hartree energ DENC   =     -2153.98686771
  -exchange      EXHF   =         0.00000000
  -V(xc)+E(xc)   XCENC  =       328.12390819
  PAW double counting   =      9584.48703241    -9479.38700248
  entropy T*S    EENTRO =        -0.00015025
  eigenvalues    EBANDS =      -699.88506320
  atomic energy  EATOM  =     10486.18329226
  Solvation  Ediel_sol  =         0.00000000
  ---------------------------------------------------
  free energy    TOTEN  =       -20.82791986 eV

  energy without entropy =      -20.82776961  energy(sigma->0) =      -20.82786978


--------------------------------------------------------------------------------------------------------




--------------------------------------- Iteration      1(  14)  ---------------------------------------


    POTLOK:  cpu time      0.0397: real time      0.0398
    SETDIJ:  cpu time      0.4167: real time      0.4167
     EDDAV:  cpu time      3.9383: real time      3.9391
       DOS:  cpu time      0.0012: real time      0.0012
    CHARGE:  cpu time      0.5379: real time      0.5379
    MIXING:  cpu time      0.0014: real time      0.0014
    --------------------------------------------
      LOOP:  cpu time      4.9352: real time      4.9360

 eigenvalue-minimisations  :  7512
 total energy-change (2. order) :-0.1262710E-05  (-0.5994441E-07)
 number of electron      64.0000003 magnetization       0.9593865
 augmentation part       30.6884960 magnetization       0.6138854

 Broyden mixing:
  rms(total) = 0.26494E-03    rms(broyden)= 0.26456E-03
  rms(prec ) = 0.37672E-03
  weight for this iteration     100.00

 eigenvalues of (default mixing * dielectric matrix)
  average eigenvalue GAMMA=   1.4989
  3.9014  2.5517  2.1730  1.1110  0.9924  0.7397  0.7397  0.6227  0.6583

 Free energy of the ion-electron system (eV)
  ---------------------------------------------------
  alpha Z        PSCENC =       542.73305656
  Ewald energy   TEWEN  =     -8629.09612564
  -Hartree energ DENC   =     -2153.97133868
  -exchange      EXHF   =         0.00000000
  -V(xc)+E(xc)   XCENC  =       328.12304471
  PAW double counting   =      9584.19127793    -9479.10369183
  entropy T*S    EENTRO =        -0.00013858
  eigenvalues    EBANDS =      -699.88729785
  atomic energy  EATOM  =     10486.18329226
  Solvation  Ediel_sol  =         0.00000000
  ---------------------------------------------------
  free energy    TOTEN  =       -20.82792112 eV

  energy without entropy =      -20.82778254  energy(sigma->0) =      -20.82787493


--------------------------------------------------------------------------------------------------------




--------------------------------------- Iteration      1(  15)  ---------------------------------------


    POTLOK:  cpu time      0.0397: real time      0.0398
    SETDIJ:  cpu time      0.4155: real time      0.4155
     EDDAV:  cpu time      4.4198: real time      4.4205
       DOS:  cpu time      0.0012: real time      0.0012
    CHARGE:  cpu time      0.5445: real time      0.5448
    MIXING:  cpu time      0.0014: real time      0.0014
    --------------------------------------------
      LOOP:  cpu time      5.4221: real time      5.4231

 eigenvalue-minimisations  :  7328
 total energy-change (2. order) :-0.1510895E-05  (-0.2903893E-07)
 number of electron      64.0000003 magnetization       0.9584115
 augmentation part       30.6885247 magnetization       0.6135068

 Broyden mixing:
  rms(total) = 0.12330E-03    rms(broyden)= 0.12312E-03
  rms(prec ) = 0.12543E-03
  weight for this iteration     100.00

 eigenvalues of (default mixing * dielectric matrix)
  average eigenvalue GAMMA=   1.4698
  3.8385  2.6103  2.4701  1.0687  0.9834  0.9834  0.8092  0.6824  0.6325  0.6198

 Free energy of the ion-electron system (eV)
  ---------------------------------------------------
  alpha Z        PSCENC =       542.73305656
  Ewald energy   TEWEN  =     -8629.09612564
  -Hartree energ DENC   =     -2153.94595285
  -exchange      EXHF   =         0.00000000
  -V(xc)+E(xc)   XCENC  =       328.12181461
  PAW double counting   =      9583.76789448    -9478.70266868
  entropy T*S    EENTRO =        -0.00013090
  eigenvalues    EBANDS =      -699.88910248
  atomic energy  EATOM  =     10486.18329226
  Solvation  Ediel_sol  =         0.00000000
  ---------------------------------------------------
  free energy    TOTEN  =       -20.82792263 eV

  energy without entropy =      -20.82779173  energy(sigma->0) =      -20.82787900


--------------------------------------------------------------------------------------------------------




--------------------------------------- Iteration      1(  16)  ---------------------------------------


    POTLOK:  cpu time      0.0403: real time      0.0404
    SETDIJ:  cpu time      0.4169: real time      0.4169
     EDDAV:  cpu time      3.7742: real time      4.4447
       DOS:  cpu time      0.0012: real time      0.0012
    --------------------------------------------
      LOOP:  cpu time      4.2326: real time      4.9032

 eigenvalue-minimisations  :  7208
 total energy-change (2. order) :-0.1619219E-06  (-0.4904737E-08)
 number of electron      64.0000003 magnetization       0.9584115
 augmentation part       30.6885247 magnetization       0.6135068

 Free energy of the ion-electron system (eV)
  ---------------------------------------------------
  alpha Z        PSCENC =       542.73305656
  Ewald energy   TEWEN  =     -8629.09612564
  -Hartree energ DENC   =     -2153.94455057
  -exchange      EXHF   =         0.00000000
  -V(xc)+E(xc)   XCENC  =       328.12170491
  PAW double counting   =      9583.73705951    -9478.67375945
  entropy T*S    EENTRO =        -0.00012799
  eigenvalues    EBANDS =      -699.88847238
  atomic energy  EATOM  =     10486.18329226
  Solvation  Ediel_sol  =         0.00000000
  ---------------------------------------------------
  free energy    TOTEN  =       -20.82792280 eV

  energy without entropy =      -20.82779481  energy(sigma->0) =      -20.82788013


--------------------------------------------------------------------------------------------------------




 average (electrostatic) potential at core
  the test charge radii are     1.0504
  (the norm of the test charge is              1.0000)
       1 -74.6009       2 -74.6009       3 -74.6009       4 -74.6009
 
 
 
 E-fermi :   9.3368     XC(G=0): -13.2454     alpha+bet :-16.2254

 val. band max:        9.3362158935   @ k =   0.4167   0.0833   0.0833
 cond. band min:       9.3374501840   @ k =   0.5000   0.5000   0.4167
 fundamental gap:      0.0012342904
 Fermi energy:         9.3367882691

 spin component 1

 k-point     1 :       0.0000    0.0000    0.0000
  band No.  band energies     occupation 
      1     -40.7599      1.00000
      2     -40.7599      1.00000
      3     -40.7599      1.00000
      4     -40.5416      1.00000
      5     -40.5416      1.00000
      6     -40.5416      1.00000
      7     -40.5416      1.00000
      8     -40.5416      1.00000
      9     -40.5416      1.00000
     10     -40.3981      1.00000
     11     -40.3981      1.00000
     12     -40.3981      1.00000
     13       2.2992      1.00000
     14       4.0280      1.00000
     15       4.0280      1.00000
     16       4.0280      1.00000
     17       4.2750      1.00000
     18       4.2750      1.00000
     19       4.2750      1.00000
     20       6.4625      1.00000
     21       6.4625      1.00000
     22       6.4625      1.00000
     23       8.0475      1.00000
     24       8.0475      1.00000
     25       9.1828      1.02585
     26       9.1828      1.02585
     27       9.1828      1.02585
     28       9.4817     -0.02986
     29       9.4817     -0.02986
     30       9.4817     -0.02986
     31       9.4817     -0.02986
     32       9.4817     -0.02986
     33       9.4817     -0.02986
     34      12.6560      0.00000
     35      12.6560      0.00000
     36      12.6560      0.00000
     37      19.8449      0.00000
     38      19.8449      0.00000
     39      19.8449      0.00000
     40      22.4155      0.00000

 k-point     2 :       0.0833    0.0000    0.0000
  band No.  band energies     occupation 
      1     -40.7562      1.00000
      2     -40.7562      1.00000
      3     -40.7540      1.00000
      4     -40.5454      1.00000
      5     -40.5454      1.00000
      6     -40.5418      1.00000
      7     -40.5418      1.00000
      8     -40.5392      1.00000
      9     -40.5392      1.00000
     10     -40.4046      1.00000
     11     -40.4006      1.00000
     12     -40.4006      1.00000
     13       2.3828      1.00000
     14       4.0673      1.00000
     15       4.0812      1.00000
     16       4.0812      1.00000
     17       4.3065      1.00000
     18       4.3226      1.00000
     19       4.3226      1.00000
     20       6.4175      1.00000
     21       6.4996      1.00000
     22       6.4996      1.00000
     23       8.0010      1.00000
     24       8.0654      1.00000
     25       9.1189      1.00430
     26       9.1189      1.00430
     27       9.1618      1.01642
     28       9.2055      1.03441
     29       9.2055      1.03441
     30       9.4054      0.04512
     31       9.4054      0.04512
     32       9.4818     -0.02980
     33       9.4818     -0.02980
     34      12.2416      0.00000
     35      12.9899      0.00000
     36      12.9899      0.00000
     37      19.8274      0.00000
     38      19.8274      0.00000
     39      20.3607      0.00000
     40      22.2493      0.00000

 k-point     3 :       0.1667    0.0000    0.0000
  band No.  band energies     occupation 
      1     -40.7454      1.00000
      2     -40.7454      1.00000
      3     -40.7367      1.00000
      4     -40.5564      1.00000
      5     -40.5564      1.00000
      6     -40.5423      1.00000
      7     -40.5423      1.00000
      8     -40.5320      1.00000
      9     -40.5320      1.00000
     10     -40.4234      1.00000
     11     -40.4078      1.00000
     12     -40.4078      1.00000
     13       2.6288      1.00000
     14       4.1789      1.00000
     15       4.2344      1.00000
     16       4.2344      1.00000
     17       4.3996      1.00000
     18       4.4653      1.00000
     19       4.4653      1.00000
     20       6.2876      1.00000
     21       6.6101      1.00000
     22       6.6101      1.00000
     23       7.8690      1.00000
     24       8.1179      1.00000
     25       8.5896      1.00000
     26       8.5896      1.00000
     27       8.9352      1.00000
     28       8.9352      1.00000
     29       9.1004      1.00208
     30       9.1905      1.02927
     31       9.1905      1.02927
     32       9.4822     -0.02964
     33       9.4822     -0.02964
     34      11.2609     -0.00000
     35      13.7777      0.00000
     36      13.7777      0.00000
     37      19.7774      0.00000
[...]
     38      17.2374      0.00000
     39      17.2374      0.00000
     40      17.2374      0.00000

 k-point    81 :       0.4167    0.4167    0.4167
  band No.  band energies     occupation 
      1     -40.5614      1.00000
      2     -40.5614      1.00000
      3     -40.5614      1.00000
      4     -40.5470      1.00000
      5     -40.2586      1.00000
      6     -40.2586      1.00000
      7     -40.2586      1.00000
      8     -40.2487      1.00000
      9     -40.2487      1.00000
     10     -40.2487      1.00000
     11     -40.2390      1.00000
     12     -40.2390      1.00000
     13       4.2616      1.00000
     14       4.3881      1.00000
     15       4.3881      1.00000
     16       4.3881      1.00000
     17       6.4634      1.00000
     18       6.4634      1.00000
     19       6.4634      1.00000
     20       6.6499      1.00000
     21       6.6499      1.00000
     22       6.7460      1.00000
     23       6.7460      1.00000
     24       6.7460      1.00000
     25       8.4236      1.00000
     26       8.4236      1.00000
     27       8.4236      1.00000
     28       9.2236      1.03396
     29       9.2236      1.03396
     30       9.3575      0.32876
     31       9.4032      0.05328
     32       9.4032      0.05328
     33       9.4032      0.05328
     34      11.3163     -0.00000
     35      11.3163     -0.00000
     36      11.3163     -0.00000
     37      16.7171      0.00000
     38      16.7171      0.00000
     39      16.7171      0.00000
     40      17.8941      0.00000

 k-point    82 :       0.5000    0.4167    0.4167
  band No.  band energies     occupation 
      1     -40.5661      1.00000
      2     -40.5661      1.00000
      3     -40.5590      1.00000
      4     -40.5590      1.00000
      5     -40.2563      1.00000
      6     -40.2563      1.00000
      7     -40.2464      1.00000
      8     -40.2464      1.00000
      9     -40.2440      1.00000
     10     -40.2440      1.00000
     11     -40.2439      1.00000
     12     -40.2439      1.00000
     13       4.2822      1.00000
     14       4.2822      1.00000
     15       4.3449      1.00000
     16       4.3449      1.00000
     17       6.4927      1.00000
     18       6.4927      1.00000
     19       6.5796      1.00000
     20       6.5796      1.00000
     21       6.6606      1.00000
     22       6.6606      1.00000
     23       6.6988      1.00000
     24       6.6988      1.00000
     25       8.6466      1.00000
     26       8.6466      1.00000
     27       8.8579      1.00000
     28       8.8579      1.00000
     29       9.3649      0.27209
     30       9.3649      0.27209
     31       9.3723      0.21937
     32       9.3723      0.21937
     33      10.3044     -0.00000
     34      10.3044     -0.00000
     35      11.2611     -0.00000
     36      11.2611     -0.00000
     37      16.5361      0.00000
     38      16.5361      0.00000
     39      17.2027      0.00000
     40      17.2027      0.00000

 k-point    83 :       0.5000    0.5000    0.4167
  band No.  band energies     occupation 
      1     -40.5674      1.00000
      2     -40.5674      1.00000
      3     -40.5674      1.00000
      4     -40.5674      1.00000
      5     -40.2477      1.00000
      6     -40.2477      1.00000
      7     -40.2477      1.00000
      8     -40.2477      1.00000
      9     -40.2427      1.00000
     10     -40.2427      1.00000
     11     -40.2427      1.00000
     12     -40.2427      1.00000
     13       4.2680      1.00000
     14       4.2680      1.00000
     15       4.2680      1.00000
     16       4.2680      1.00000
     17       6.5693      1.00000
     18       6.5693      1.00000
     19       6.5693      1.00000
     20       6.5693      1.00000
     21       6.6313      1.00000
     22       6.6313      1.00000
     23       6.6313      1.00000
     24       6.6313      1.00000
     25       9.0330      1.00008
     26       9.0330      1.00008
     27       9.0330      1.00008
     28       9.0330      1.00008
     29       9.3375      0.49440
     30       9.3375      0.49440
     31       9.3375      0.49440
     32       9.3375      0.49440
     33      10.6395     -0.00000
     34      10.6395     -0.00000
     35      10.6395     -0.00000
     36      10.6395     -0.00000
     37      16.7182      0.00000
     38      16.7182      0.00000
     39      16.7182      0.00000
     40      16.7182      0.00000

 k-point    84 :       0.5000    0.5000    0.5000
  band No.  band energies     occupation 
      1     -40.5723      1.00000
      2     -40.5723      1.00000
      3     -40.5723      1.00000
      4     -40.5723      1.00000
      5     -40.2427      1.00000
      6     -40.2427      1.00000
      7     -40.2427      1.00000
      8     -40.2427      1.00000
      9     -40.2427      1.00000
     10     -40.2427      1.00000
     11     -40.2427      1.00000
     12     -40.2427      1.00000
     13       4.2204      1.00000
     14       4.2204      1.00000
     15       4.2204      1.00000
     16       4.2204      1.00000
     17       6.5931      1.00000
     18       6.5931      1.00000
     19       6.5931      1.00000
     20       6.5931      1.00000
     21       6.5931      1.00000
     22       6.5931      1.00000
     23       6.5931      1.00000
     24       6.5931      1.00000
     25       9.3921      0.10228
     26       9.3921      0.10228
     27       9.3921      0.10228
     28       9.3921      0.10228
     29       9.3921      0.10228
     30       9.3921      0.10228
     31       9.3921      0.10228
     32       9.3921      0.10228
     33      10.3572     -0.00000
     34      10.3572     -0.00000
     35      10.3572     -0.00000
     36      10.3572     -0.00000
     37      16.5438      0.00000
     38      16.5438      0.00000
     39      16.5438      0.00000
     40      16.5438      0.00000


--------------------------------------------------------------------------------------------------------


 soft charge-density along one line, spin component            1
         0         1         2         3         4         5         6         7         8         9
 total charge-density along one line
 
 soft charge-density along one line, spin component            2
         0         1         2         3         4         5         6         7         8         9
 total charge-density along one line
 
 pseudopotential strength for first ion, spin component:            1
-37.305  -0.000  -0.000   8.282   0.000   0.000  -0.000   0.000
 -0.000 -37.305  -0.000   0.000   8.282   0.000  -0.000  -0.000
 -0.000  -0.000 -37.305   0.000   0.000   8.282  -0.000  -0.000
  8.282   0.000   0.000   7.865  -0.000  -0.000   0.000  -0.000
  0.000   8.282   0.000  -0.000   7.865  -0.000   0.000   0.000
  0.000   0.000   8.282  -0.000  -0.000   7.865   0.000   0.000
 -0.000  -0.000  -0.000   0.000   0.000   0.000  -2.362  -0.000
  0.000  -0.000  -0.000  -0.000   0.000   0.000  -0.000  -2.362
  0.000   0.000   0.000  -0.000  -0.000  -0.000   0.000   0.000
 -0.000  -0.000   0.000   0.000   0.000  -0.000  -0.000  -0.000
  0.000   0.000   0.000  -0.000  -0.000  -0.000  -0.000   0.000
 -0.000  -0.000  -0.000   0.000   0.000   0.000  -2.019  -0.000
  0.000  -0.000  -0.000  -0.000   0.000   0.000  -0.000  -2.019
  0.000   0.000   0.000  -0.000  -0.000  -0.000   0.000   0.000
 -0.000  -0.000   0.000   0.000   0.000  -0.000  -0.000  -0.000
  0.000   0.000   0.000  -0.000  -0.000  -0.000  -0.000   0.000
  0.000  -0.000   0.000   0.000  -0.000   0.000   0.000   0.000
  0.000  -0.000   0.000   0.000  -0.000   0.000   0.000   0.000
 pseudopotential strength for first ion, spin component:            2
-37.190  -0.000  -0.000   8.223   0.000   0.000  -0.000   0.000
 -0.000 -37.190  -0.000   0.000   8.223   0.000  -0.000  -0.000
 -0.000  -0.000 -37.190   0.000   0.000   8.223  -0.000  -0.000
  8.223   0.000   0.000   7.881  -0.000  -0.000   0.000  -0.000
  0.000   8.223   0.000  -0.000   7.881  -0.000   0.000   0.000
  0.000   0.000   8.223  -0.000  -0.000   7.881   0.000   0.000
 -0.000  -0.000  -0.000   0.000   0.000   0.000  -2.238  -0.000
  0.000  -0.000  -0.000  -0.000   0.000   0.000  -0.000  -2.238
  0.000   0.000   0.000  -0.000  -0.000  -0.000   0.000   0.000
 -0.000  -0.000   0.000   0.000   0.000  -0.000  -0.000  -0.000
  0.000   0.000   0.000  -0.000  -0.000  -0.000  -0.000   0.000
 -0.000  -0.000  -0.000   0.000   0.000   0.000  -1.882  -0.000
  0.000  -0.000  -0.000  -0.000   0.000   0.000  -0.000  -1.882
  0.000   0.000   0.000  -0.000  -0.000  -0.000   0.000   0.000
 -0.000  -0.000   0.000   0.000   0.000  -0.000  -0.000  -0.000
  0.000   0.000   0.000  -0.000  -0.000  -0.000  -0.000   0.000
  0.000  -0.000   0.000   0.000  -0.000   0.000   0.000   0.000
  0.000  -0.000   0.000   0.000  -0.000   0.000   0.000   0.000
 total augmentation occupancy for first ion, spin component:            1
  1.998   0.000   0.000  -0.014  -0.000  -0.000   0.000   0.000  -0.000  -0.000   0.000   0.000   0.000   0.000  -0.000  -0.000
  0.000   1.998   0.000  -0.000  -0.014  -0.000   0.000  -0.000   0.000  -0.000   0.000  -0.000   0.000  -0.000  -0.000  -0.000
  0.000   0.000   1.998  -0.000  -0.000  -0.014   0.000   0.000  -0.000   0.000   0.000   0.000   0.000  -0.000   0.000   0.000
 -0.014  -0.000  -0.000   0.104   0.000   0.000   0.000  -0.000   0.000   0.000  -0.000  -0.000   0.000   0.000  -0.000  -0.000
 -0.000  -0.014  -0.000   0.000   0.104   0.000  -0.000  -0.000  -0.000  -0.000   0.000  -0.000  -0.000  -0.000   0.000  -0.000
 -0.000  -0.000  -0.014   0.000   0.000   0.104   0.000  -0.000  -0.000   0.000   0.000  -0.000   0.000  -0.000  -0.000   0.000
  0.000   0.000   0.000   0.000  -0.000   0.000   2.756   0.000  -0.000   0.000   0.000  -0.737  -0.000   0.000  -0.000  -0.000
  0.000  -0.000   0.000  -0.000  -0.000  -0.000   0.000   2.756   0.000   0.000  -0.000  -0.000  -0.737  -0.000  -0.000   0.000
 -0.000   0.000   0.000  -0.000  -0.000   0.000  -0.000   0.000   2.529   0.000   0.000   0.000  -0.000  -0.545  -0.000  -0.000
 -0.000  -0.000   0.000   0.000  -0.000   0.000   0.000   0.000   0.000   2.756   0.000  -0.000  -0.000  -0.000  -0.737  -0.000
 -0.000   0.000   0.000  -0.000  -0.000  -0.000   0.000  -0.000   0.000   0.000   2.529  -0.000   0.000  -0.000  -0.000  -0.545
  0.000  -0.000   0.000  -0.000  -0.000  -0.000  -0.737  -0.000   0.000  -0.000  -0.000   0.472   0.000  -0.000   0.000   0.000
  0.000   0.000   0.000   0.000  -0.000   0.000  -0.000  -0.737  -0.000  -0.000   0.000   0.000   0.472   0.000   0.000  -0.000
  0.000  -0.000   0.000   0.000  -0.000   0.000   0.000  -0.000  -0.545  -0.000  -0.000  -0.000   0.000   0.428   0.000   0.000
 -0.000  -0.000   0.000  -0.000   0.000  -0.000  -0.000  -0.000  -0.000  -0.737  -0.000   0.000   0.000   0.000   0.472   0.000
  0.000  -0.000   0.000  -0.000  -0.000  -0.000  -0.000   0.000  -0.000  -0.000  -0.545   0.000  -0.000   0.000   0.000   0.428
 -0.000  -0.000  -0.000  -0.000  -0.000   0.000   0.000   0.000  -0.000   0.000   0.000  -0.000   0.000   0.000  -0.000   0.000
 -0.000   0.000   0.000  -0.000   0.000  -0.000   0.000  -0.000  -0.000   0.000  -0.000  -0.000  -0.000  -0.000   0.000   0.000
 total augmentation occupancy for first ion, spin component:            2
  0.000   0.000   0.000   0.000   0.000   0.000  -0.000  -0.000  -0.000  -0.000   0.000   0.000   0.000  -0.000   0.000   0.000
  0.000   0.000   0.000   0.000   0.000  -0.000   0.000  -0.000  -0.000  -0.000  -0.000   0.000   0.000   0.000  -0.000   0.000
  0.000   0.000   0.000   0.000  -0.000   0.000  -0.000  -0.000   0.000   0.000   0.000  -0.000   0.000   0.000  -0.000  -0.000
  0.000   0.000   0.000  -0.002  -0.000  -0.000  -0.000   0.000   0.000  -0.000   0.000   0.000  -0.000   0.000   0.000  -0.000
  0.000   0.000  -0.000  -0.000  -0.002  -0.000  -0.000   0.000  -0.000  -0.000   0.000   0.000  -0.000   0.000  -0.000   0.000
  0.000  -0.000   0.000  -0.000  -0.000  -0.002   0.000  -0.000  -0.000  -0.000  -0.000  -0.000  -0.000  -0.000   0.000  -0.000
 -0.000   0.000  -0.000  -0.000  -0.000   0.000  -0.039  -0.000   0.000  -0.000  -0.000   0.041   0.000  -0.000   0.000   0.000
 -0.000  -0.000  -0.000   0.000   0.000  -0.000  -0.000  -0.039  -0.000  -0.000   0.000   0.000   0.041   0.000   0.000  -0.000
  0.000  -0.000  -0.000   0.000  -0.000  -0.000   0.000  -0.000  -0.029  -0.000  -0.000  -0.000   0.000   0.024   0.000   0.000
 -0.000  -0.000   0.000  -0.000  -0.000  -0.000  -0.000  -0.000  -0.000  -0.039  -0.000   0.000   0.000   0.000   0.041   0.000
 -0.000  -0.000   0.000  -0.000   0.000   0.000  -0.000   0.000  -0.000  -0.000  -0.029   0.000  -0.000   0.000   0.000   0.024
  0.000   0.000  -0.000   0.000   0.000  -0.000   0.041   0.000  -0.000   0.000   0.000   0.025   0.000  -0.000   0.000   0.000
  0.000   0.000   0.000  -0.000  -0.000  -0.000   0.000   0.041   0.000   0.000  -0.000   0.000   0.025   0.000   0.000  -0.000
  0.000   0.000  -0.000  -0.000  -0.000   0.000  -0.000   0.000   0.024   0.000   0.000  -0.000   0.000   0.008   0.000   0.000
  0.000  -0.000  -0.000   0.000  -0.000   0.000   0.000   0.000   0.000   0.041   0.000   0.000   0.000   0.000   0.025   0.000
 -0.000  -0.000   0.000   0.000  -0.000  -0.000   0.000  -0.000   0.000   0.000   0.024   0.000  -0.000   0.000   0.000   0.008
 -0.000  -0.000  -0.000   0.000  -0.000   0.000  -0.000  -0.000  -0.000  -0.000  -0.000   0.000  -0.000   0.000   0.000   0.000
 -0.000  -0.000  -0.000  -0.000  -0.000  -0.000   0.000  -0.000   0.000   0.000   0.000  -0.000  -0.000  -0.000   0.000  -0.000


------------------------ aborting loop because EDIFF is reached ----------------------------------------





 total charge

# of ion       s       p       d       tot
------------------------------------------
    1        0.315   6.173   7.978  14.466
    2        0.315   6.173   7.978  14.466
    3        0.315   6.173   7.978  14.466
    4        0.315   6.173   7.978  14.466
--------------------------------------------------
tot          1.259  24.690  31.913  57.863



 magnetization (x)

# of ion       s       p       d       tot
------------------------------------------
    1       -0.002  -0.003   0.254   0.249
    2       -0.002  -0.003   0.254   0.249
    3       -0.002  -0.003   0.254   0.249
    4       -0.002  -0.003   0.254   0.249
--------------------------------------------------
tot         -0.007  -0.012   1.017   0.998
 
    CHARGE:  cpu time      0.5564: real time      0.5604
    FORLOC:  cpu time      0.0008: real time      0.0008
    FORNL :  cpu time      0.8901: real time      0.8901
    FORCOR:  cpu time      0.4563: real time      0.4563
    FORHAR:  cpu time      0.0044: real time      0.0044
    MIXING:  cpu time      0.0014: real time      0.0014
    OFIELD:  cpu time      0.0000: real time      0.0000

 ---------------------------------------------------------------------------------------------

         DFTD3 V3.0 Rev 1        
 DF pbe       
 parameters
 k1-k3        =   16.0000    1.3333   -4.0000
 Edisp (eV)   -2.62093

 E6    (eV) :    -1.4629
 E8    (eV) :    -1.1581
 % E8        : 44.19
    FORVDW:  cpu time      0.0074: real time      0.0074

 VOLUME and BASIS-vectors are now :
 -----------------------------------------------------------------------------
  energy-cutoff  :      500.00
  volume of cell :       60.11
      direct lattice vectors                 reciprocal lattice vectors
     3.917301575  0.000000000  0.000000000     0.255277767 -0.000000000  0.000000000
     0.000000000  3.917301575  0.000000000     0.000000000  0.255277767  0.000000000
     0.000000000  0.000000000  3.917301575    -0.000000000 -0.000000000  0.255277767

  length of vectors
     3.917301575  3.917301575  3.917301575     0.255277767  0.255277767  0.255277767


 FORCES acting on ions
    electron-ion (+dipol)            ewald-force                    non-local-force                 convergence-correction
 -----------------------------------------------------------------------------------------------
   -.263E-13 -.205E-13 -.944E-13   -.366E-13 -.348E-13 0.417E-14   -.635E-26 -.517E-25 0.116E-24   -.587E-13 -.160E-13 -.521E-13
   -.296E-13 0.488E-12 0.412E-12   -.388E-13 0.552E-14 0.106E-13   0.492E-25 0.517E-25 -.123E-24   -.528E-13 0.988E-13 0.576E-14
   0.468E-12 -.182E-13 -.156E-11   0.424E-13 -.761E-14 0.104E-13   0.267E-26 -.517E-25 0.517E-25   0.146E-12 -.663E-14 0.442E-13
   0.475E-12 0.661E-11 -.464E-11   0.402E-13 0.327E-13 -.238E-13   -.146E-25 0.000E+00 0.129E-24   0.165E-12 0.704E-13 -.502E-13
 -----------------------------------------------------------------------------------------------
   0.887E-12 0.706E-11 -.588E-11   0.725E-14 -.417E-14 0.136E-14   0.310E-25 -.517E-25 0.174E-24   0.199E-12 0.147E-12 -.523E-13
 
 
 POSITION                                       TOTAL-FORCE (eV/Angst)
 -----------------------------------------------------------------------------------
      0.00000      0.00000      0.00000        -0.000000     -0.000000      0.000000
      0.00000      1.95865      1.95865        -0.000000     -0.000000     -0.000000
      1.95865      0.00000      1.95865         0.000000     -0.000000     -0.000000
      1.95865      1.95865      0.00000         0.000000      0.000000      0.000000
 -----------------------------------------------------------------------------------
    total drift:                                0.000000      0.000000     -0.000000


--------------------------------------------------------------------------------------------------------



  FREE ENERGIE OF THE ION-ELECTRON SYSTEM (eV)
  ---------------------------------------------------
  free  energy   TOTEN  =       -23.44884809 eV

  energy  without entropy=      -23.44872010  energy(sigma->0) =      -23.44880543
 


--------------------------------------------------------------------------------------------------------


    POTLOK:  cpu time      0.4587: real time      0.4588


--------------------------------------------------------------------------------------------------------


     LOOP+:  cpu time    101.5385: real time    102.2346
    4ORBIT:  cpu time      0.0000: real time      0.0000



 total charge

# of ion       s       p       d       tot
------------------------------------------
    1        0.315   6.173   7.978  14.466
    2        0.315   6.173   7.978  14.466
    3        0.315   6.173   7.978  14.466
    4        0.315   6.173   7.978  14.466
--------------------------------------------------
tot          1.259  24.690  31.913  57.863



 magnetization (x)

# of ion       s       p       d       tot
------------------------------------------
    1       -0.002  -0.003   0.254   0.249
    2       -0.002  -0.003   0.254   0.249
    3       -0.002  -0.003   0.254   0.249
    4       -0.002  -0.003   0.254   0.249
--------------------------------------------------
tot         -0.007  -0.012   1.017   0.998
 

 total amount of memory used by VASP MPI-rank0   107568. kBytes
=======================================================================

   base      :      30000. kBytes
   nonl-proj :      19066. kBytes
   fftplans  :       8118. kBytes
   grid      :       6177. kBytes
   one-center:        124. kBytes
   wavefun   :      44083. kBytes
 
  
  
 General timing and accounting informations for this job:
 ========================================================
  
                  Total CPU time used (sec):      103.407
                            User time (sec):      100.300
                          System time (sec):        3.107
                         Elapsed time (sec):      104.053
  
                   Maximum memory used (kb):      404268.
                   Average memory used (kb):          N/A
  
                          Minor page faults:       566315
                          Major page faults:            6
                 Voluntary context switches:          208
