82
Lattice="11.004690437655821 0.0 0.0 0.0 11.004690437655821 0.0 0.0 0.0 27.781491233325184" Properties=species:S:1:pos:R:3:move_mask:L:1:momenta:R:3 adsorbate_info="_JSON {\"site\": {\"coordinates\": [1.8341150729426368, 3.6682301458852735, 9.281491233325172], \"connectivity\": 3, \"topology\": [25, 30, 37], \"n_vector\": [-0.06754245473740253, 0.0666548242045398, 0.995487393801804], \"h_vector\": [1.0, 0.0, 0.0], \"site_formula\": {\"Pd\": 3}}, \"smiles\": \"Cl[C]=O\", \"mdf\": 2.289496922515089, \"adsorbate_formula\": \"CO\"}" mace_E=-405.38837960690336 converged=T n_steps=30 d_min=1.9706440711383437 site_type=unknown dE_rel_meV=0 original_idx=22 rank=0 E_MACE=-405.7190491925288 pbc="T T T"
Pd       0.00000000       0.00000000       1.50000000  F       0.00000000       0.00000000       0.00000000
Pd       4.12662202       6.88085227       7.41766479  T       0.00000000       0.00000000       0.00000000
Pd       1.37652753       6.87758204       7.41442539  T       0.00000000       0.00000000       0.00000000
Pd       9.63478205       4.12134559       7.42557134  T       0.00000000       0.00000000       0.00000000
Pd       6.88062731       4.12826453       7.41396078  T       0.00000000       0.00000000       0.00000000
Pd       4.12512574       4.12861130       7.41393947  T       0.00000000       0.00000000       0.00000000
Pd       1.36726904       4.11821901       7.43085409  T       0.00000000       0.00000000       0.00000000
Pd       9.64128623       1.38800036       7.43317365  T       0.00000000       0.00000000       0.00000000
Pd       6.87621067       6.88058982       7.41769525  T       0.00000000       0.00000000       0.00000000
Pd       6.88410659       1.37600705       7.41390537  T       0.00000000       0.00000000       0.00000000
Pd       1.35910713       1.39370261       7.44207048  T       0.00000000       0.00000000       0.00000000
Pd       8.25283772       8.25538431       5.43013329  T       0.00000000       0.00000000       0.00000000
Pd       5.50206596       8.25377422       5.43140060  T       0.00000000       0.00000000       0.00000000
Pd       2.75105182       8.25551683       5.43065964  T       0.00000000       0.00000000       0.00000000
Pd       0.00016291       8.25472477       5.43046784  T       0.00000000       0.00000000       0.00000000
Pd       8.25164557       5.50428628       5.42510307  T       0.00000000       0.00000000       0.00000000
Pd       5.50145628       5.50277775       5.43104861  T       0.00000000       0.00000000       0.00000000
Pd       4.12219500       1.37575568       7.41402761  T       0.00000000       0.00000000       0.00000000
Pd       2.75187479       5.50343927       5.42629027  T       0.00000000       0.00000000       0.00000000
Pd       9.62724745       6.87869279       7.41306875  T       0.00000000       0.00000000       0.00000000
Pd       4.12664102       9.62987486       7.41733415  T       0.00000000       0.00000000       0.00000000
Pd       2.75054612       8.25860466       9.41240926  T       0.00000000       0.00000000       0.00000000
Pd       0.00004402       8.25116048       9.41022497  T       0.00000000       0.00000000       0.00000000
Pd       8.24781793       5.50972442       9.40943637  T       0.00000000       0.00000000       0.00000000
Pd       5.50106500       5.50291246       9.41171144  T       0.00000000       0.00000000       0.00000000
Pd       2.75438715       5.50762606       9.41065173  T       0.00000000       0.00000000       0.00000000
Pd      -0.00264225       5.52788925       9.40815762  T       0.00000000       0.00000000       0.00000000
Pd       8.22979943       2.75449502       9.41277709  T       0.00000000       0.00000000       0.00000000
Pd       1.37580755       9.63607651       7.41364147  T       0.00000000       0.00000000       0.00000000
Pd       5.50897362       2.74982702       9.40981846  T       0.00000000       0.00000000       0.00000000
Pd       0.00927774       2.74463796       9.52191644  T       0.00000000       0.00000000       0.00000000
Pd       8.25078990      -0.00127278       9.41189637  T       0.00000000       0.00000000       0.00000000
Pd       5.50158716       0.00119321       9.40914837  T       0.00000000       0.00000000       0.00000000
Pd       2.75231129       0.00121017       9.41317418  T       0.00000000       0.00000000       0.00000000
Pd      -0.00256705      -0.03223814       9.41237868  T       0.00000000       0.00000000       0.00000000
Pd       9.62847875       9.63442943       7.41253499  T       0.00000000       0.00000000       0.00000000
Pd       6.87668854       9.62977545       7.41726513  T       0.00000000       0.00000000       0.00000000
Pd       2.78777551       2.75534172       9.41163856  T       0.00000000       0.00000000       0.00000000
Pd       0.00006451       5.49791794       5.43326411  T       0.00000000       0.00000000       0.00000000
Pd       8.25918097       2.75121181       5.43127157  T       0.00000000       0.00000000       0.00000000
Pd       5.50219390       2.75154743       5.43169200  T       0.00000000       0.00000000       0.00000000
Pd       1.37558630       1.37558630       3.44537281  F       0.00000000       0.00000000       0.00000000
Pd       8.25351783       8.25351783       1.50000000  F       0.00000000       0.00000000       0.00000000
Pd       5.50234522       8.25351783       1.50000000  F       0.00000000       0.00000000       0.00000000
Pd       2.75117261       8.25351783       1.50000000  F       0.00000000       0.00000000       0.00000000
Pd       0.00000000       8.25351783       1.50000000  F       0.00000000       0.00000000       0.00000000
Pd       8.25351783       5.50234522       1.50000000  F       0.00000000       0.00000000       0.00000000
Pd       5.50234522       5.50234522       1.50000000  F       0.00000000       0.00000000       0.00000000
Pd       4.12675891       1.37558630       3.44537281  F       0.00000000       0.00000000       0.00000000
Pd       2.75117261       5.50234522       1.50000000  F       0.00000000       0.00000000       0.00000000
Pd       8.25351783       2.75117261       1.50000000  F       0.00000000       0.00000000       0.00000000
Pd       5.50234522       2.75117261       1.50000000  F       0.00000000       0.00000000       0.00000000
Pd       2.75117261       2.75117261       1.50000000  F       0.00000000       0.00000000       0.00000000
Pd       0.00000000       2.75117261       1.50000000  F       0.00000000       0.00000000       0.00000000
Pd       8.25351783       0.00000000       1.50000000  F       0.00000000       0.00000000       0.00000000
Pd       5.50234522       0.00000000       1.50000000  F       0.00000000       0.00000000       0.00000000
Pd       2.75117261       0.00000000       1.50000000  F       0.00000000       0.00000000       0.00000000
Pd       0.00000000       5.50234522       1.50000000  F       0.00000000       0.00000000       0.00000000
Pd       6.87793152       1.37558630       3.44537281  F       0.00000000       0.00000000       0.00000000
Pd       9.62910413       1.37558630       3.44537281  F       0.00000000       0.00000000       0.00000000
Pd       1.37558630       4.12675891       3.44537281  F       0.00000000       0.00000000       0.00000000
Pd       2.74494128       2.75078145       5.43333819  T       0.00000000       0.00000000       0.00000000
Pd       0.00029161       2.75177624       5.42662285  T       0.00000000       0.00000000       0.00000000
Pd       8.25353040       0.00028263       5.42644072  T       0.00000000       0.00000000       0.00000000
Pd       5.50180863       0.00115080       5.43184762  T       0.00000000       0.00000000       0.00000000
Pd       2.75023764       0.00179464       5.42857602  T       0.00000000       0.00000000       0.00000000
Pd       0.00080567       0.00763453       5.43244404  T       0.00000000       0.00000000       0.00000000
Pd       9.62910413       9.62910413       3.44537281  F       0.00000000       0.00000000       0.00000000
Pd       6.87793152       9.62910413       3.44537281  F       0.00000000       0.00000000       0.00000000
Pd       4.12675891       9.62910413       3.44537281  F       0.00000000       0.00000000       0.00000000
Pd       1.37558630       9.62910413       3.44537281  F       0.00000000       0.00000000       0.00000000
Pd       9.62910413       6.87793152       3.44537281  F       0.00000000       0.00000000       0.00000000
Pd       6.87793152       6.87793152       3.44537281  F       0.00000000       0.00000000       0.00000000
Pd       4.12675891       6.87793152       3.44537281  F       0.00000000       0.00000000       0.00000000
Pd       1.37558630       6.87793152       3.44537281  F       0.00000000       0.00000000       0.00000000
Pd       9.62910413       4.12675891       3.44537281  F       0.00000000       0.00000000       0.00000000
Pd       6.87793152       4.12675891       3.44537281  F       0.00000000       0.00000000       0.00000000
Pd       4.12675891       4.12675891       3.44537281  F       0.00000000       0.00000000       0.00000000
Pd       5.50183967       8.25365349       9.41475117  T       0.00000000       0.00000000       0.00000000
Pd       8.25298879       8.25832811       9.41195695  T       0.00000000       0.00000000       0.00000000
C       -0.18535236       2.97107389      11.33404774  T       0.00000000       0.00000000       0.00000000
O       -0.28917450       3.11053006      12.48700049  T       0.00000000       0.00000000       0.00000000
