82
Lattice="11.004690437655821 0.0 0.0 0.0 11.004690437655821 0.0 0.0 0.0 27.781491233325184" Properties=species:S:1:pos:R:3:move_mask:L:1:momenta:R:3 adsorbate_info="_JSON {\"site\": {\"coordinates\": [9.170575364713184, 6.419402755299228, 9.281491233325172], \"connectivity\": 3, \"topology\": [23, 26, 79], \"n_vector\": [0.06577691711701401, 0.06622079799995007, 0.995634573067263], \"h_vector\": [0.0, -1.0, 0.0], \"site_formula\": {\"Pd\": 3}}, \"smiles\": \"Cl[C]=O\", \"mdf\": 2.3125177030070305, \"adsorbate_formula\": \"CO\"}" mace_E=-405.38941766579063 converged=T n_steps=28 d_min=1.8507642446553527 site_type=unknown dE_rel_meV=0 original_idx=96 rank=58 E_MACE=-405.3899985637776 pbc="T T T"
Pd       0.00000000       0.00000000       1.50000000  F       0.00000000       0.00000000       0.00000000
Pd       4.12401218       6.87896348       7.42182860  T       0.00000000       0.00000000       0.00000000
Pd       1.36629036       6.87954434       7.42501727  T       0.00000000       0.00000000       0.00000000
Pd       9.63040446       4.13006538       7.41612582  T       0.00000000       0.00000000       0.00000000
Pd       6.87750370       4.13322405       7.41738427  T       0.00000000       0.00000000       0.00000000
Pd       4.12624867       4.12718561       7.42035410  T       0.00000000       0.00000000       0.00000000
Pd       1.37814967       4.12875235       7.42169913  T       0.00000000       0.00000000       0.00000000
Pd       9.63031590       1.37439326       7.41617124  T       0.00000000       0.00000000       0.00000000
Pd       6.88993805       6.89675891       7.45182070  T       0.00000000       0.00000000       0.00000000
Pd       6.87731547       1.37008555       7.41690496  T       0.00000000       0.00000000       0.00000000
Pd       1.37800976       1.37731202       7.42159685  T       0.00000000       0.00000000       0.00000000
Pd       8.24971885       8.25382031       5.43109205  T       0.00000000       0.00000000       0.00000000
Pd       5.50707508       8.25297459       5.43907413  T       0.00000000       0.00000000       0.00000000
Pd       2.74823937       8.25353989       5.43506757  T       0.00000000       0.00000000       0.00000000
Pd      -0.00878834       8.25424139       5.43606008  T       0.00000000       0.00000000       0.00000000
Pd       8.25114910       5.51126525       5.43610402  T       0.00000000       0.00000000       0.00000000
Pd       5.50312681       5.50678529       5.43340677  T       0.00000000       0.00000000       0.00000000
Pd       4.12606070       1.37684085       7.42007601  T       0.00000000       0.00000000       0.00000000
Pd       2.75228486       5.50417852       5.43382002  T       0.00000000       0.00000000       0.00000000
Pd       9.62076220       6.88349859       7.43272566  T       0.00000000       0.00000000       0.00000000
Pd       4.12229238       9.62881568       7.42060184  T       0.00000000       0.00000000       0.00000000
Pd       2.72885092       8.25377308       9.42129214  T       0.00000000       0.00000000       0.00000000
Pd      -0.00208366       8.25772945       9.42999667  T       0.00000000       0.00000000       0.00000000
Pd       8.25824357       5.46732760       9.41806086  T       0.00000000       0.00000000       0.00000000
Pd       5.50053612       5.50073539       9.41663067  T       0.00000000       0.00000000       0.00000000
Pd       2.75390362       5.50230735       9.41848082  T       0.00000000       0.00000000       0.00000000
Pd       0.00309563       5.49587344       9.41823223  T       0.00000000       0.00000000       0.00000000
Pd       8.25148808       2.74849815       9.40953493  T       0.00000000       0.00000000       0.00000000
Pd       1.36692824       9.63015098       7.42362420  T       0.00000000       0.00000000       0.00000000
Pd       5.50437602       2.75239718       9.40995564  T       0.00000000       0.00000000       0.00000000
Pd       0.00055591       2.75437206       9.41351939  T       0.00000000       0.00000000       0.00000000
Pd       8.25662265       0.02916934       9.41855818  T       0.00000000       0.00000000       0.00000000
Pd       5.49847144       0.00378211       9.41538888  T       0.00000000       0.00000000       0.00000000
Pd       2.75354817       0.00160419       9.41775061  T       0.00000000       0.00000000       0.00000000
Pd       0.00438530       0.01217284       9.41675075  T       0.00000000       0.00000000       0.00000000
Pd       9.62172992       9.62754505       7.43003686  T       0.00000000       0.00000000       0.00000000
Pd       6.88455813       9.61641248       7.44359723  T       0.00000000       0.00000000       0.00000000
Pd       2.75149126       2.75171876       9.41678576  T       0.00000000       0.00000000       0.00000000
Pd      -0.00062206       5.50318013       5.42810380  T       0.00000000       0.00000000       0.00000000
Pd       8.25352342       2.75197139       5.43384681  T       0.00000000       0.00000000       0.00000000
Pd       5.50358756       2.75210797       5.43367945  T       0.00000000       0.00000000       0.00000000
Pd       1.37558630       1.37558630       3.44537281  F       0.00000000       0.00000000       0.00000000
Pd       8.25351783       8.25351783       1.50000000  F       0.00000000       0.00000000       0.00000000
Pd       5.50234522       8.25351783       1.50000000  F       0.00000000       0.00000000       0.00000000
Pd       2.75117261       8.25351783       1.50000000  F       0.00000000       0.00000000       0.00000000
Pd       0.00000000       8.25351783       1.50000000  F       0.00000000       0.00000000       0.00000000
Pd       8.25351783       5.50234522       1.50000000  F       0.00000000       0.00000000       0.00000000
Pd       5.50234522       5.50234522       1.50000000  F       0.00000000       0.00000000       0.00000000
Pd       4.12675891       1.37558630       3.44537281  F       0.00000000       0.00000000       0.00000000
Pd       2.75117261       5.50234522       1.50000000  F       0.00000000       0.00000000       0.00000000
Pd       8.25351783       2.75117261       1.50000000  F       0.00000000       0.00000000       0.00000000
Pd       5.50234522       2.75117261       1.50000000  F       0.00000000       0.00000000       0.00000000
Pd       2.75117261       2.75117261       1.50000000  F       0.00000000       0.00000000       0.00000000
Pd       0.00000000       2.75117261       1.50000000  F       0.00000000       0.00000000       0.00000000
Pd       8.25351783       0.00000000       1.50000000  F       0.00000000       0.00000000       0.00000000
Pd       5.50234522       0.00000000       1.50000000  F       0.00000000       0.00000000       0.00000000
Pd       2.75117261       0.00000000       1.50000000  F       0.00000000       0.00000000       0.00000000
Pd       0.00000000       5.50234522       1.50000000  F       0.00000000       0.00000000       0.00000000
Pd       6.87793152       1.37558630       3.44537281  F       0.00000000       0.00000000       0.00000000
Pd       9.62910413       1.37558630       3.44537281  F       0.00000000       0.00000000       0.00000000
Pd       1.37558630       4.12675891       3.44537281  F       0.00000000       0.00000000       0.00000000
Pd       2.75085375       2.75167360       5.43344910  T       0.00000000       0.00000000       0.00000000
Pd       0.00058828       2.75266392       5.43282456  T       0.00000000       0.00000000       0.00000000
Pd       8.25155334      -0.00722551       5.43459204  T       0.00000000       0.00000000       0.00000000
Pd       5.50155200      -0.00318556       5.43120717  T       0.00000000       0.00000000       0.00000000
Pd       2.75194164      -0.00067237       5.43323354  T       0.00000000       0.00000000       0.00000000
Pd      -0.00024298       0.00117864       5.42748403  T       0.00000000       0.00000000       0.00000000
Pd       9.62910413       9.62910413       3.44537281  F       0.00000000       0.00000000       0.00000000
Pd       6.87793152       9.62910413       3.44537281  F       0.00000000       0.00000000       0.00000000
Pd       4.12675891       9.62910413       3.44537281  F       0.00000000       0.00000000       0.00000000
Pd       1.37558630       9.62910413       3.44537281  F       0.00000000       0.00000000       0.00000000
Pd       9.62910413       6.87793152       3.44537281  F       0.00000000       0.00000000       0.00000000
Pd       6.87793152       6.87793152       3.44537281  F       0.00000000       0.00000000       0.00000000
Pd       4.12675891       6.87793152       3.44537281  F       0.00000000       0.00000000       0.00000000
Pd       1.37558630       6.87793152       3.44537281  F       0.00000000       0.00000000       0.00000000
Pd       9.62910413       4.12675891       3.44537281  F       0.00000000       0.00000000       0.00000000
Pd       6.87793152       4.12675891       3.44537281  F       0.00000000       0.00000000       0.00000000
Pd       4.12675891       4.12675891       3.44537281  F       0.00000000       0.00000000       0.00000000
Pd       5.45033868       8.25630685       9.42236192  T       0.00000000       0.00000000       0.00000000
Pd       8.21973345       8.24922094       9.51251124  T       0.00000000       0.00000000       0.00000000
C        8.73335659       8.39805219      11.27337493  T       0.00000000       0.00000000       0.00000000
O        8.93250111       8.48081450      12.42027150  T       0.00000000       0.00000000       0.00000000
