82
Lattice="11.004690437655821 0.0 0.0 0.0 11.004690437655821 0.0 0.0 0.0 27.781491233325184" Properties=species:S:1:pos:R:3:move_mask:L:1:momenta:R:3 adsorbate_info="_JSON {\"site\": {\"coordinates\": [0.0, 6.877931523534889, 9.281491233325172], \"connectivity\": 2, \"topology\": [22, 26], \"n_vector\": [0.0050974118848164645, 0.0048677983860001, 0.9999751601569661], \"h_vector\": [0.0, 1.0, 0.0], \"site_formula\": {\"Pd\": 2}}, \"smiles\": \"Cl[C]=O\", \"mdf\": 2.3126198604068064, \"adsorbate_formula\": \"CO\"}" mace_E=-405.7084702877154 converged=T n_steps=67 d_min=1.9692703606997273 site_type=bridge dE_rel_meV=0 original_idx=5 rank=3 E_MACE=-405.7177579793188 pbc="T T T"
Pd       0.00000000       0.00000000       1.50000000  F       0.00000000       0.00000000       0.00000000
Pd       4.10546330       6.86231189       7.43533643  T       0.00000000       0.00000000       0.00000000
Pd       1.35891205       6.86892088       7.42321329  T       0.00000000       0.00000000       0.00000000
Pd       9.61536840       4.12980446       7.42789058  T       0.00000000       0.00000000       0.00000000
Pd       6.86548370       4.12578539       7.42210447  T       0.00000000       0.00000000       0.00000000
Pd       4.10781450       4.12876875       7.42755556  T       0.00000000       0.00000000       0.00000000
Pd       1.35872293       4.12053205       7.41618020  T       0.00000000       0.00000000       0.00000000
Pd       9.62008838       1.37256466       7.41509323  T       0.00000000       0.00000000       0.00000000
Pd       6.86433338       6.87774983       7.42583211  T       0.00000000       0.00000000       0.00000000
Pd       6.86832296       1.37321847       7.41482929  T       0.00000000       0.00000000       0.00000000
Pd       1.36526764       1.36776726       7.40715112  T       0.00000000       0.00000000       0.00000000
Pd       8.24543487       8.25357454       5.42805156  T       0.00000000       0.00000000       0.00000000
Pd       5.49742506       8.25131043       5.42830489  T       0.00000000       0.00000000       0.00000000
Pd       2.74640847       8.24448770       5.43082591  T       0.00000000       0.00000000       0.00000000
Pd      -0.00820884       8.24801758       5.42892843  T       0.00000000       0.00000000       0.00000000
Pd       8.24647089       5.50240663       5.43510645  T       0.00000000       0.00000000       0.00000000
Pd       5.49177171       5.50187969       5.43658991  T       0.00000000       0.00000000       0.00000000
Pd       4.11907098       1.37319403       7.41114401  T       0.00000000       0.00000000       0.00000000
Pd       2.74127368       5.50133437       5.43414931  T       0.00000000       0.00000000       0.00000000
Pd       9.61697315       6.86616445       7.43203707  T       0.00000000       0.00000000       0.00000000
Pd       4.12039837       9.62124523       7.41262149  T       0.00000000       0.00000000       0.00000000
Pd       2.72989845       8.26545683       9.40224956  T       0.00000000       0.00000000       0.00000000
Pd      -0.02070172       8.26230699       9.40688885  T       0.00000000       0.00000000       0.00000000
Pd       8.23912424       5.50205321       9.41929941  T       0.00000000       0.00000000       0.00000000
Pd       5.49016536       5.49627764       9.41436015  T       0.00000000       0.00000000       0.00000000
Pd       2.75369017       5.48393840       9.50676624  T       0.00000000       0.00000000       0.00000000
Pd      -0.03553280       5.48448273       9.49819951  T       0.00000000       0.00000000       0.00000000
Pd       8.23245242       2.74824956       9.41343272  T       0.00000000       0.00000000       0.00000000
Pd       1.36624392       9.62125961       7.41017136  T       0.00000000       0.00000000       0.00000000
Pd       5.48200596       2.74343559       9.41140674  T       0.00000000       0.00000000       0.00000000
Pd      -0.02278765       2.71153988       9.40455870  T       0.00000000       0.00000000       0.00000000
Pd       8.25014279       0.00300513       9.41121501  T       0.00000000       0.00000000       0.00000000
Pd       5.49760561      -0.00355886       9.40458517  T       0.00000000       0.00000000       0.00000000
Pd       2.75055001      -0.00734773       9.40457181  T       0.00000000       0.00000000       0.00000000
Pd      -0.00108289      -0.01241210       9.40813147  T       0.00000000       0.00000000       0.00000000
Pd       9.61873335       9.62316393       7.41789845  T       0.00000000       0.00000000       0.00000000
Pd       6.86958263       9.62849029       7.41730245  T       0.00000000       0.00000000       0.00000000
Pd       2.73286536       2.71509098       9.40190794  T       0.00000000       0.00000000       0.00000000
Pd      -0.00742166       5.49970634       5.43102678  T       0.00000000       0.00000000       0.00000000
Pd       8.24439648       2.74859229       5.42702481  T       0.00000000       0.00000000       0.00000000
Pd       5.49743601       2.75042150       5.42626685  T       0.00000000       0.00000000       0.00000000
Pd       1.37558630       1.37558630       3.44537281  F       0.00000000       0.00000000       0.00000000
Pd       8.25351783       8.25351783       1.50000000  F       0.00000000       0.00000000       0.00000000
Pd       5.50234522       8.25351783       1.50000000  F       0.00000000       0.00000000       0.00000000
Pd       2.75117261       8.25351783       1.50000000  F       0.00000000       0.00000000       0.00000000
Pd       0.00000000       8.25351783       1.50000000  F       0.00000000       0.00000000       0.00000000
Pd       8.25351783       5.50234522       1.50000000  F       0.00000000       0.00000000       0.00000000
Pd       5.50234522       5.50234522       1.50000000  F       0.00000000       0.00000000       0.00000000
Pd       4.12675891       1.37558630       3.44537281  F       0.00000000       0.00000000       0.00000000
Pd       2.75117261       5.50234522       1.50000000  F       0.00000000       0.00000000       0.00000000
Pd       8.25351783       2.75117261       1.50000000  F       0.00000000       0.00000000       0.00000000
Pd       5.50234522       2.75117261       1.50000000  F       0.00000000       0.00000000       0.00000000
Pd       2.75117261       2.75117261       1.50000000  F       0.00000000       0.00000000       0.00000000
Pd       0.00000000       2.75117261       1.50000000  F       0.00000000       0.00000000       0.00000000
Pd       8.25351783       0.00000000       1.50000000  F       0.00000000       0.00000000       0.00000000
Pd       5.50234522       0.00000000       1.50000000  F       0.00000000       0.00000000       0.00000000
Pd       2.75117261       0.00000000       1.50000000  F       0.00000000       0.00000000       0.00000000
Pd       0.00000000       5.50234522       1.50000000  F       0.00000000       0.00000000       0.00000000
Pd       6.87793152       1.37558630       3.44537281  F       0.00000000       0.00000000       0.00000000
Pd       9.62910413       1.37558630       3.44537281  F       0.00000000       0.00000000       0.00000000
Pd       1.37558630       4.12675891       3.44537281  F       0.00000000       0.00000000       0.00000000
Pd       2.74569628       2.75402337       5.42790340  T       0.00000000       0.00000000       0.00000000
Pd      -0.00995398       2.75163068       5.42816894  T       0.00000000       0.00000000       0.00000000
Pd       8.25128119      -0.00114173       5.43032190  T       0.00000000       0.00000000       0.00000000
Pd       5.49880267      -0.00291460       5.42984558  T       0.00000000       0.00000000       0.00000000
Pd       2.74830373      -0.00319581       5.42753238  T       0.00000000       0.00000000       0.00000000
Pd      -0.00432691      -0.00364235       5.42866528  T       0.00000000       0.00000000       0.00000000
Pd       9.62910413       9.62910413       3.44537281  F       0.00000000       0.00000000       0.00000000
Pd       6.87793152       9.62910413       3.44537281  F       0.00000000       0.00000000       0.00000000
Pd       4.12675891       9.62910413       3.44537281  F       0.00000000       0.00000000       0.00000000
Pd       1.37558630       9.62910413       3.44537281  F       0.00000000       0.00000000       0.00000000
Pd       9.62910413       6.87793152       3.44537281  F       0.00000000       0.00000000       0.00000000
Pd       6.87793152       6.87793152       3.44537281  F       0.00000000       0.00000000       0.00000000
Pd       4.12675891       6.87793152       3.44537281  F       0.00000000       0.00000000       0.00000000
Pd       1.37558630       6.87793152       3.44537281  F       0.00000000       0.00000000       0.00000000
Pd       9.62910413       4.12675891       3.44537281  F       0.00000000       0.00000000       0.00000000
Pd       6.87793152       4.12675891       3.44537281  F       0.00000000       0.00000000       0.00000000
Pd       4.12675891       4.12675891       3.44537281  F       0.00000000       0.00000000       0.00000000
Pd       5.47915219       8.25462641       9.41577044  T       0.00000000       0.00000000       0.00000000
Pd       8.23482028       8.25769412       9.41557587  T       0.00000000       0.00000000       0.00000000
C        1.35481843       5.21536775      10.87280977  T       0.00000000       0.00000000       0.00000000
O        1.33665348       4.99773822      12.04192246  T       0.00000000       0.00000000       0.00000000
