82
Lattice="11.004690437655821 0.0 0.0 0.0 11.004690437655821 0.0 0.0 0.0 27.781491233325184" Properties=species:S:1:pos:R:3:move_mask:L:1:momenta:R:3 adsorbate_info="_JSON {\"site\": {\"coordinates\": [7.336460291770547, 10.087632901184502, 9.281491233325172], \"connectivity\": 3, \"topology\": [31, 32, 79], \"n_vector\": [-0.07225585107062148, -0.05372034212633256, 0.9959383599540134], \"h_vector\": [1.0, 0.0, 0.0], \"site_formula\": {\"Pd\": 3}}, \"smiles\": \"Cl[C]=O\", \"mdf\": 2.315189267371391, \"adsorbate_formula\": \"CO\"}" mace_E=-405.7150370744878 converged=T n_steps=48 d_min=3.507397240167888 site_type=atop dE_rel_meV=0 original_idx=83 rank=54 E_MACE=-405.39042380375093 pbc="T T T"
Pd       0.00000000       0.00000000       1.50000000  F       0.00000000       0.00000000       0.00000000
Pd       4.13270086       6.89828371       7.43930602  T       0.00000000       0.00000000       0.00000000
Pd       1.37800817       6.87234788       7.41812807  T       0.00000000       0.00000000       0.00000000
Pd       9.62814417       4.12481847       7.41716835  T       0.00000000       0.00000000       0.00000000
Pd       6.87694102       4.14101020       7.42480713  T       0.00000000       0.00000000       0.00000000
Pd       4.12735023       4.14128170       7.42263643  T       0.00000000       0.00000000       0.00000000
Pd       1.37555548       4.12533148       7.41668359  T       0.00000000       0.00000000       0.00000000
Pd       9.62369331       1.37581355       7.41567805  T       0.00000000       0.00000000       0.00000000
Pd       6.86888777       6.90007626       7.44279119  T       0.00000000       0.00000000       0.00000000
Pd       6.86727854       1.38029123       7.43969550  T       0.00000000       0.00000000       0.00000000
Pd       1.37550317       1.37627868       7.41508361  T       0.00000000       0.00000000       0.00000000
Pd       8.24659027       8.25324779       5.43140492  T       0.00000000       0.00000000       0.00000000
Pd       5.50169842       8.26852409       5.43724549  T       0.00000000       0.00000000       0.00000000
Pd       2.75615445       8.25397054       5.43106602  T       0.00000000       0.00000000       0.00000000
Pd      -0.00130661       8.24713783       5.43077268  T       0.00000000       0.00000000       0.00000000
Pd       8.25059582       5.50428619       5.42948760  T       0.00000000       0.00000000       0.00000000
Pd       5.50242965       5.52145427       5.43732826  T       0.00000000       0.00000000       0.00000000
Pd       4.13092422       1.38224300       7.43612739  T       0.00000000       0.00000000       0.00000000
Pd       2.75300140       5.50441103       5.42886999  T       0.00000000       0.00000000       0.00000000
Pd       9.62428026       6.87228982       7.41853156  T       0.00000000       0.00000000       0.00000000
Pd       4.12464031       9.64202605       7.42950461  T       0.00000000       0.00000000       0.00000000
Pd       2.72061928       8.25249070       9.41482426  T       0.00000000       0.00000000       0.00000000
Pd      -0.00222945       8.24556823       9.40810230  T       0.00000000       0.00000000       0.00000000
Pd       8.25820001       5.50053833       9.42209691  T       0.00000000       0.00000000       0.00000000
Pd       5.50197522       5.51823134       9.42734979  T       0.00000000       0.00000000       0.00000000
Pd       2.74785179       5.50021333       9.42060152  T       0.00000000       0.00000000       0.00000000
Pd       0.00073773       5.49994728       9.40966118  T       0.00000000       0.00000000       0.00000000
Pd       8.25420332       2.75493355       9.41576267  T       0.00000000       0.00000000       0.00000000
Pd       1.37309213       9.62593919       7.41109482  T       0.00000000       0.00000000       0.00000000
Pd       5.49966119       2.77010330       9.42023368  T       0.00000000       0.00000000       0.00000000
Pd      -0.00075700       2.74509118       9.40999810  T       0.00000000       0.00000000       0.00000000
Pd       8.27375885      -0.00189952       9.41221972  T       0.00000000       0.00000000       0.00000000
Pd       5.49331513       0.04207304       9.51411689  T       0.00000000       0.00000000       0.00000000
Pd       2.71699580       0.00070300       9.41270281  T       0.00000000       0.00000000       0.00000000
Pd      -0.00621956      -0.00207224       9.40846324  T       0.00000000       0.00000000       0.00000000
Pd       9.62563095       9.62484195       7.41099747  T       0.00000000       0.00000000       0.00000000
Pd       6.87433050       9.64157205       7.43252469  T       0.00000000       0.00000000       0.00000000
Pd       2.74774129       2.75720210       9.41432893  T       0.00000000       0.00000000       0.00000000
Pd      -0.00051574       5.49994834       5.43221821  T       0.00000000       0.00000000       0.00000000
Pd       8.25329264       2.75903883       5.42927176  T       0.00000000       0.00000000       0.00000000
Pd       5.50238847       2.76353266       5.43868664  T       0.00000000       0.00000000       0.00000000
Pd       1.37558630       1.37558630       3.44537281  F       0.00000000       0.00000000       0.00000000
Pd       8.25351783       8.25351783       1.50000000  F       0.00000000       0.00000000       0.00000000
Pd       5.50234522       8.25351783       1.50000000  F       0.00000000       0.00000000       0.00000000
Pd       2.75117261       8.25351783       1.50000000  F       0.00000000       0.00000000       0.00000000
Pd       0.00000000       8.25351783       1.50000000  F       0.00000000       0.00000000       0.00000000
Pd       8.25351783       5.50234522       1.50000000  F       0.00000000       0.00000000       0.00000000
Pd       5.50234522       5.50234522       1.50000000  F       0.00000000       0.00000000       0.00000000
Pd       4.12675891       1.37558630       3.44537281  F       0.00000000       0.00000000       0.00000000
Pd       2.75117261       5.50234522       1.50000000  F       0.00000000       0.00000000       0.00000000
Pd       8.25351783       2.75117261       1.50000000  F       0.00000000       0.00000000       0.00000000
Pd       5.50234522       2.75117261       1.50000000  F       0.00000000       0.00000000       0.00000000
Pd       2.75117261       2.75117261       1.50000000  F       0.00000000       0.00000000       0.00000000
Pd       0.00000000       2.75117261       1.50000000  F       0.00000000       0.00000000       0.00000000
Pd       8.25351783       0.00000000       1.50000000  F       0.00000000       0.00000000       0.00000000
Pd       5.50234522       0.00000000       1.50000000  F       0.00000000       0.00000000       0.00000000
Pd       2.75117261       0.00000000       1.50000000  F       0.00000000       0.00000000       0.00000000
Pd       0.00000000       5.50234522       1.50000000  F       0.00000000       0.00000000       0.00000000
Pd       6.87793152       1.37558630       3.44537281  F       0.00000000       0.00000000       0.00000000
Pd       9.62910413       1.37558630       3.44537281  F       0.00000000       0.00000000       0.00000000
Pd       1.37558630       4.12675891       3.44537281  F       0.00000000       0.00000000       0.00000000
Pd       2.75023947       2.75896729       5.42831696  T       0.00000000       0.00000000       0.00000000
Pd      -0.00078678       2.74680615       5.43060323  T       0.00000000       0.00000000       0.00000000
Pd       8.24901757       0.00398578       5.42991700  T       0.00000000       0.00000000       0.00000000
Pd       5.50189389       0.01226968       5.43944945  T       0.00000000       0.00000000       0.00000000
Pd       2.75376709       0.00386215       5.42940055  T       0.00000000       0.00000000       0.00000000
Pd      -0.00149208      -0.00382141       5.42840716  T       0.00000000       0.00000000       0.00000000
Pd       9.62910413       9.62910413       3.44537281  F       0.00000000       0.00000000       0.00000000
Pd       6.87793152       9.62910413       3.44537281  F       0.00000000       0.00000000       0.00000000
Pd       4.12675891       9.62910413       3.44537281  F       0.00000000       0.00000000       0.00000000
Pd       1.37558630       9.62910413       3.44537281  F       0.00000000       0.00000000       0.00000000
Pd       9.62910413       6.87793152       3.44537281  F       0.00000000       0.00000000       0.00000000
Pd       6.87793152       6.87793152       3.44537281  F       0.00000000       0.00000000       0.00000000
Pd       4.12675891       6.87793152       3.44537281  F       0.00000000       0.00000000       0.00000000
Pd       1.37558630       6.87793152       3.44537281  F       0.00000000       0.00000000       0.00000000
Pd       9.62910413       4.12675891       3.44537281  F       0.00000000       0.00000000       0.00000000
Pd       6.87793152       4.12675891       3.44537281  F       0.00000000       0.00000000       0.00000000
Pd       4.12675891       4.12675891       3.44537281  F       0.00000000       0.00000000       0.00000000
Pd       5.49505638       8.26171791       9.51848945  T       0.00000000       0.00000000       0.00000000
Pd       8.27698168       8.25391398       9.41462926  T       0.00000000       0.00000000       0.00000000
C        5.31652042       9.65868626      10.90467125  T       0.00000000       0.00000000       0.00000000
O        5.17049402       9.65157341      12.08418293  T       0.00000000       0.00000000       0.00000000
