82
Lattice="11.004690437655821 0.0 0.0 0.0 11.004690437655821 0.0 0.0 0.0 27.781491233325184" Properties=species:S:1:pos:R:3:move_mask:L:1:momenta:R:3 adsorbate_info="_JSON {\"site\": {\"coordinates\": [0.0, 0.0, 9.281491233325172], \"connectivity\": 1, \"topology\": [34], \"n_vector\": [0.002619567301751816, 0.0026195673017583966, 0.999993137843607], \"h_vector\": [1.0, 0.0, 0.0], \"site_formula\": {\"Pd\": 1}}, \"smiles\": \"Cl[C]=O\", \"mdf\": 2.428991940662595, \"adsorbate_formula\": \"CO\"}" mace_E=-405.7112846922851 converged=T n_steps=56 d_min=1.9731992721120717 site_type=atop dE_rel_meV=0 original_idx=0 rank=1 E_MACE=-405.7182512616453 pbc="T T T"
Pd       0.00000000       0.00000000       1.50000000  F       0.00000000       0.00000000       0.00000000
Pd       4.11831153       6.87543512       7.41280164  T       0.00000000       0.00000000       0.00000000
Pd       1.36947109       6.87610979       7.41408147  T       0.00000000       0.00000000       0.00000000
Pd       9.62133581       4.11873729       7.40843773  T       0.00000000       0.00000000       0.00000000
Pd       6.86581496       4.12096497       7.41462173  T       0.00000000       0.00000000       0.00000000
Pd       4.11626004       4.12649845       7.41365074  T       0.00000000       0.00000000       0.00000000
Pd       1.37107513       4.11804706       7.41574092  T       0.00000000       0.00000000       0.00000000
Pd       9.60977179       1.36848673       7.42341615  T       0.00000000       0.00000000       0.00000000
Pd       6.86608219       6.87575218       7.41406534  T       0.00000000       0.00000000       0.00000000
Pd       6.86660819       1.36533918       7.43225445  T       0.00000000       0.00000000       0.00000000
Pd       1.34934965       1.36316656       7.43585962  T       0.00000000       0.00000000       0.00000000
Pd       8.24514456       8.25242677       5.42716907  T       0.00000000       0.00000000       0.00000000
Pd       5.49137711       8.25267956       5.42790284  T       0.00000000       0.00000000       0.00000000
Pd       2.74495680       8.25329603       5.42837443  T       0.00000000       0.00000000       0.00000000
Pd      -0.00502611       8.25242717       5.42912343  T       0.00000000       0.00000000       0.00000000
Pd       8.25041490       5.49863656       5.42895439  T       0.00000000       0.00000000       0.00000000
Pd       5.49855541       5.50216148       5.42946987  T       0.00000000       0.00000000       0.00000000
Pd       4.10888595       1.37396146       7.42516154  T       0.00000000       0.00000000       0.00000000
Pd       2.74787206       5.50066606       5.42977124  T       0.00000000       0.00000000       0.00000000
Pd       9.62024005       6.87162705       7.40912173  T       0.00000000       0.00000000       0.00000000
Pd       4.10846684       9.62820707       7.42371631  T       0.00000000       0.00000000       0.00000000
Pd       2.73217073       8.24610788       9.41477576  T       0.00000000       0.00000000       0.00000000
Pd      -0.02046540       8.21691231       9.40546897  T       0.00000000       0.00000000       0.00000000
Pd       8.24868891       5.49296415       9.40656824  T       0.00000000       0.00000000       0.00000000
Pd       5.49954305       5.50416726       9.40543490  T       0.00000000       0.00000000       0.00000000
Pd       2.74952396       5.49832029       9.40429951  T       0.00000000       0.00000000       0.00000000
Pd       0.00139491       5.49465797       9.40690625  T       0.00000000       0.00000000       0.00000000
Pd       8.23431969       2.76727357       9.40515576  T       0.00000000       0.00000000       0.00000000
Pd       1.35108160       9.62767996       7.43303584  T       0.00000000       0.00000000       0.00000000
Pd       5.48000315       2.75274854       9.41242804  T       0.00000000       0.00000000       0.00000000
Pd      -0.02248814       2.76640247       9.40279504  T       0.00000000       0.00000000       0.00000000
Pd       8.20527664      -0.00924377       9.49694894  T       0.00000000       0.00000000       0.00000000
Pd       5.47611786      -0.00131285       9.41833819  T       0.00000000       0.00000000       0.00000000
Pd       2.72995496      -0.00621088       9.42037778  T       0.00000000       0.00000000       0.00000000
Pd      -0.00801843      -0.01293859       9.49880526  T       0.00000000       0.00000000       0.00000000
Pd       9.60999527       9.62121879       7.42000972  T       0.00000000       0.00000000       0.00000000
Pd       6.86394482       9.63063683       7.42836449  T       0.00000000       0.00000000       0.00000000
Pd       2.72940873       2.75017230       9.41537326  T       0.00000000       0.00000000       0.00000000
Pd      -0.00056062       5.49923334       5.42920566  T       0.00000000       0.00000000       0.00000000
Pd       8.24533171       2.74571121       5.42795269  T       0.00000000       0.00000000       0.00000000
Pd       5.49072928       2.74872538       5.42798196  T       0.00000000       0.00000000       0.00000000
Pd       1.37558630       1.37558630       3.44537281  F       0.00000000       0.00000000       0.00000000
Pd       8.25351783       8.25351783       1.50000000  F       0.00000000       0.00000000       0.00000000
Pd       5.50234522       8.25351783       1.50000000  F       0.00000000       0.00000000       0.00000000
Pd       2.75117261       8.25351783       1.50000000  F       0.00000000       0.00000000       0.00000000
Pd       0.00000000       8.25351783       1.50000000  F       0.00000000       0.00000000       0.00000000
Pd       8.25351783       5.50234522       1.50000000  F       0.00000000       0.00000000       0.00000000
Pd       5.50234522       5.50234522       1.50000000  F       0.00000000       0.00000000       0.00000000
Pd       4.12675891       1.37558630       3.44537281  F       0.00000000       0.00000000       0.00000000
Pd       2.75117261       5.50234522       1.50000000  F       0.00000000       0.00000000       0.00000000
Pd       8.25351783       2.75117261       1.50000000  F       0.00000000       0.00000000       0.00000000
Pd       5.50234522       2.75117261       1.50000000  F       0.00000000       0.00000000       0.00000000
Pd       2.75117261       2.75117261       1.50000000  F       0.00000000       0.00000000       0.00000000
Pd       0.00000000       2.75117261       1.50000000  F       0.00000000       0.00000000       0.00000000
Pd       8.25351783       0.00000000       1.50000000  F       0.00000000       0.00000000       0.00000000
Pd       5.50234522       0.00000000       1.50000000  F       0.00000000       0.00000000       0.00000000
Pd       2.75117261       0.00000000       1.50000000  F       0.00000000       0.00000000       0.00000000
Pd       0.00000000       5.50234522       1.50000000  F       0.00000000       0.00000000       0.00000000
Pd       6.87793152       1.37558630       3.44537281  F       0.00000000       0.00000000       0.00000000
Pd       9.62910413       1.37558630       3.44537281  F       0.00000000       0.00000000       0.00000000
Pd       1.37558630       4.12675891       3.44537281  F       0.00000000       0.00000000       0.00000000
Pd       2.74532099       2.74720918       5.42880121  T       0.00000000       0.00000000       0.00000000
Pd      -0.00396974       2.74242500       5.42948729  T       0.00000000       0.00000000       0.00000000
Pd       8.24438601      -0.00205178       5.43413553  T       0.00000000       0.00000000       0.00000000
Pd       5.49063844       0.00017882       5.43723948  T       0.00000000       0.00000000       0.00000000
Pd       2.73853999      -0.00181477       5.43807093  T       0.00000000       0.00000000       0.00000000
Pd      -0.01223104      -0.00304690       5.43227486  T       0.00000000       0.00000000       0.00000000
Pd       9.62910413       9.62910413       3.44537281  F       0.00000000       0.00000000       0.00000000
Pd       6.87793152       9.62910413       3.44537281  F       0.00000000       0.00000000       0.00000000
Pd       4.12675891       9.62910413       3.44537281  F       0.00000000       0.00000000       0.00000000
Pd       1.37558630       9.62910413       3.44537281  F       0.00000000       0.00000000       0.00000000
Pd       9.62910413       6.87793152       3.44537281  F       0.00000000       0.00000000       0.00000000
Pd       6.87793152       6.87793152       3.44537281  F       0.00000000       0.00000000       0.00000000
Pd       4.12675891       6.87793152       3.44537281  F       0.00000000       0.00000000       0.00000000
Pd       1.37558630       6.87793152       3.44537281  F       0.00000000       0.00000000       0.00000000
Pd       9.62910413       4.12675891       3.44537281  F       0.00000000       0.00000000       0.00000000
Pd       6.87793152       4.12675891       3.44537281  F       0.00000000       0.00000000       0.00000000
Pd       4.12675891       4.12675891       3.44537281  F       0.00000000       0.00000000       0.00000000
Pd       5.47871421       8.25167683       9.41174515  T       0.00000000       0.00000000       0.00000000
Pd       8.23138364       8.21597191       9.40699085  T       0.00000000       0.00000000       0.00000000
C       -1.40638549      -0.23980733      10.87501719  T       0.00000000       0.00000000       0.00000000
O       -1.39766327      -0.43209215      12.04796386  T       0.00000000       0.00000000       0.00000000
