82
Lattice="11.004690437655821 0.0 0.0 0.0 11.004690437655821 0.0 0.0 0.0 27.781491233325184" Properties=species:S:1:pos:R:3:move_mask:L:1:momenta:R:3 adsorbate_info="_JSON {\"site\": {\"coordinates\": [0.9170575364713184, 1.8341150729426368, 9.281491233325172], \"connectivity\": 3, \"topology\": [30, 34, 37], \"n_vector\": [0.051954170488828666, -0.0713799147087963, 0.9960952122889571], \"h_vector\": [0.0, 1.0, 0.0], \"site_formula\": {\"Pd\": 3}}, \"smiles\": \"Cl[C]=O\", \"mdf\": 2.325918401539931, \"adsorbate_formula\": \"CO\"}" mace_E=-405.71634083548497 converged=T n_steps=120 d_min=1.9702247631073961 site_type=bridge dE_rel_meV=0 original_idx=9 rank=9 E_MACE=-405.71634083548497 pbc="T T T"
Pd       0.00000000       0.00000000       1.50000000  F       0.00000000       0.00000000       0.00000000
Pd       4.13414006       6.89243681       7.41030083  T       0.00000000       0.00000000       0.00000000
Pd       1.38349827       6.89383373       7.40793567  T       0.00000000       0.00000000       0.00000000
Pd       9.63650542       4.13355778       7.41540295  T       0.00000000       0.00000000       0.00000000
Pd       6.88476085       4.13455042       7.41374430  T       0.00000000       0.00000000       0.00000000
Pd       4.13786497       4.13100418       7.41160768  T       0.00000000       0.00000000       0.00000000
Pd       1.38519261       4.13061346       7.40982655  T       0.00000000       0.00000000       0.00000000
Pd       9.63569197       1.37923984       7.44664897  T       0.00000000       0.00000000       0.00000000
Pd       6.88268650       6.88824165       7.41290639  T       0.00000000       0.00000000       0.00000000
Pd       6.87952929       1.38482048       7.42315800  T       0.00000000       0.00000000       0.00000000
Pd       1.37196123       1.38544790       7.43100061  T       0.00000000       0.00000000       0.00000000
Pd       8.25243610       8.26200473       5.43097967  T       0.00000000       0.00000000       0.00000000
Pd       5.50690579       8.25906985       5.42606801  T       0.00000000       0.00000000       0.00000000
Pd       2.75362719       8.25940275       5.42527954  T       0.00000000       0.00000000       0.00000000
Pd      -0.00306153       8.26507220       5.43009302  T       0.00000000       0.00000000       0.00000000
Pd       8.25852492       5.50735856       5.43327957  T       0.00000000       0.00000000       0.00000000
Pd       5.50445927       5.50709882       5.42810584  T       0.00000000       0.00000000       0.00000000
Pd       4.11972950       1.37780049       7.42748428  T       0.00000000       0.00000000       0.00000000
Pd       2.75524902       5.50602011       5.42845459  T       0.00000000       0.00000000       0.00000000
Pd       9.63422043       6.89442951       7.41379148  T       0.00000000       0.00000000       0.00000000
Pd       4.11860030       9.64306828       7.42567256  T       0.00000000       0.00000000       0.00000000
Pd       2.75612887       8.23897020       9.41282764  T       0.00000000       0.00000000       0.00000000
Pd       0.00002987       8.24250013       9.41804184  T       0.00000000       0.00000000       0.00000000
Pd       8.26834483       5.51525917       9.40582872  T       0.00000000       0.00000000       0.00000000
Pd       5.51730569       5.51593852       9.40329567  T       0.00000000       0.00000000       0.00000000
Pd       2.76846809       5.51214544       9.40370110  T       0.00000000       0.00000000       0.00000000
Pd       0.01575677       5.52055960       9.40723874  T       0.00000000       0.00000000       0.00000000
Pd       8.25574018       2.77119858       9.41886942  T       0.00000000       0.00000000       0.00000000
Pd       1.37198729       9.63768881       7.42786422  T       0.00000000       0.00000000       0.00000000
Pd       5.50485005       2.76289443       9.41454309  T       0.00000000       0.00000000       0.00000000
Pd       0.00564748       2.79564943       9.41884799  T       0.00000000       0.00000000       0.00000000
Pd       8.24900887       0.01276747       9.43090463  T       0.00000000       0.00000000       0.00000000
Pd       5.50195216       0.01190987       9.42037631  T       0.00000000       0.00000000       0.00000000
Pd       2.77538291       0.00971630       9.49228901  T       0.00000000       0.00000000       0.00000000
Pd      -0.01100358       0.01650696       9.51437700  T       0.00000000       0.00000000       0.00000000
Pd       9.63521366       9.65062148       7.44491515  T       0.00000000       0.00000000       0.00000000
Pd       6.87868066       9.64043150       7.42193898  T       0.00000000       0.00000000       0.00000000
Pd       2.75976953       2.78643494       9.41086890  T       0.00000000       0.00000000       0.00000000
Pd       0.00334389       5.50741444       5.43290498  T       0.00000000       0.00000000       0.00000000
Pd       8.25430221       2.75390757       5.42973033  T       0.00000000       0.00000000       0.00000000
Pd       5.50797560       2.75559325       5.42679025  T       0.00000000       0.00000000       0.00000000
Pd       1.37558630       1.37558630       3.44537281  F       0.00000000       0.00000000       0.00000000
Pd       8.25351783       8.25351783       1.50000000  F       0.00000000       0.00000000       0.00000000
Pd       5.50234522       8.25351783       1.50000000  F       0.00000000       0.00000000       0.00000000
Pd       2.75117261       8.25351783       1.50000000  F       0.00000000       0.00000000       0.00000000
Pd       0.00000000       8.25351783       1.50000000  F       0.00000000       0.00000000       0.00000000
Pd       8.25351783       5.50234522       1.50000000  F       0.00000000       0.00000000       0.00000000
Pd       5.50234522       5.50234522       1.50000000  F       0.00000000       0.00000000       0.00000000
Pd       4.12675891       1.37558630       3.44537281  F       0.00000000       0.00000000       0.00000000
Pd       2.75117261       5.50234522       1.50000000  F       0.00000000       0.00000000       0.00000000
Pd       8.25351783       2.75117261       1.50000000  F       0.00000000       0.00000000       0.00000000
Pd       5.50234522       2.75117261       1.50000000  F       0.00000000       0.00000000       0.00000000
Pd       2.75117261       2.75117261       1.50000000  F       0.00000000       0.00000000       0.00000000
Pd       0.00000000       2.75117261       1.50000000  F       0.00000000       0.00000000       0.00000000
Pd       8.25351783       0.00000000       1.50000000  F       0.00000000       0.00000000       0.00000000
Pd       5.50234522       0.00000000       1.50000000  F       0.00000000       0.00000000       0.00000000
Pd       2.75117261       0.00000000       1.50000000  F       0.00000000       0.00000000       0.00000000
Pd       0.00000000       5.50234522       1.50000000  F       0.00000000       0.00000000       0.00000000
Pd       6.87793152       1.37558630       3.44537281  F       0.00000000       0.00000000       0.00000000
Pd       9.62910413       1.37558630       3.44537281  F       0.00000000       0.00000000       0.00000000
Pd       1.37558630       4.12675891       3.44537281  F       0.00000000       0.00000000       0.00000000
Pd       2.75413837       2.75445413       5.42809252  T       0.00000000       0.00000000       0.00000000
Pd      -0.00145335       2.75167121       5.43117280  T       0.00000000       0.00000000       0.00000000
Pd       8.25689900       0.00586679       5.43727534  T       0.00000000       0.00000000       0.00000000
Pd       5.50111979       0.00538187       5.43403949  T       0.00000000       0.00000000       0.00000000
Pd       2.74463996       0.00523093       5.43404517  T       0.00000000       0.00000000       0.00000000
Pd      -0.00286064       0.00648106       5.44052864  T       0.00000000       0.00000000       0.00000000
Pd       9.62910413       9.62910413       3.44537281  F       0.00000000       0.00000000       0.00000000
Pd       6.87793152       9.62910413       3.44537281  F       0.00000000       0.00000000       0.00000000
Pd       4.12675891       9.62910413       3.44537281  F       0.00000000       0.00000000       0.00000000
Pd       1.37558630       9.62910413       3.44537281  F       0.00000000       0.00000000       0.00000000
Pd       9.62910413       6.87793152       3.44537281  F       0.00000000       0.00000000       0.00000000
Pd       6.87793152       6.87793152       3.44537281  F       0.00000000       0.00000000       0.00000000
Pd       4.12675891       6.87793152       3.44537281  F       0.00000000       0.00000000       0.00000000
Pd       1.37558630       6.87793152       3.44537281  F       0.00000000       0.00000000       0.00000000
Pd       9.62910413       4.12675891       3.44537281  F       0.00000000       0.00000000       0.00000000
Pd       6.87793152       4.12675891       3.44537281  F       0.00000000       0.00000000       0.00000000
Pd       4.12675891       4.12675891       3.44537281  F       0.00000000       0.00000000       0.00000000
Pd       5.50201183       8.26616245       9.41330110  T       0.00000000       0.00000000       0.00000000
Pd       8.25117575       8.26012385       9.41601708  T       0.00000000       0.00000000       0.00000000
C        1.39695134      -0.08075373      10.89711185  T       0.00000000       0.00000000       0.00000000
O        1.42607158      -0.16535053      12.08167283  T       0.00000000       0.00000000       0.00000000
