82
Lattice="11.004690437655821 0.0 0.0 0.0 11.004690437655821 0.0 0.0 0.0 27.781491233325184" Properties=species:S:1:pos:R:3:move_mask:L:1:momenta:R:3 adsorbate_info="_JSON {\"site\": {\"coordinates\": [4.585287682356593, 10.087632901184502, 9.281491233325172], \"connectivity\": 3, \"topology\": [32, 33, 78], \"n_vector\": [-0.07181455765164768, -0.05372205875920852, 0.9959701851521311], \"h_vector\": [1.0, 0.0, 0.0], \"site_formula\": {\"Pd\": 3}}, \"smiles\": \"Cl[C]=O\", \"mdf\": 2.3159465195371727, \"adsorbate_formula\": \"CO\"}" mace_E=-405.71566085070975 converged=T n_steps=48 d_min=1.8417166415663742 site_type=atop dE_rel_meV=0 original_idx=55 rank=55 E_MACE=-405.39035781999416 pbc="T T T"
Pd       0.00000000       0.00000000       1.50000000  F       0.00000000       0.00000000       0.00000000
Pd       4.11760434       6.89876158       7.44191148  T       0.00000000       0.00000000       0.00000000
Pd       1.38148854       6.89707850       7.43853059  T       0.00000000       0.00000000       0.00000000
Pd       9.62899472       4.12574695       7.41656661  T       0.00000000       0.00000000       0.00000000
Pd       6.87706273       4.12524694       7.41703512  T       0.00000000       0.00000000       0.00000000
Pd       4.12584834       4.13972240       7.42456776  T       0.00000000       0.00000000       0.00000000
Pd       1.37608571       4.13997266       7.42245163  T       0.00000000       0.00000000       0.00000000
Pd       9.62889396       1.37666984       7.41503462  T       0.00000000       0.00000000       0.00000000
Pd       6.87314312       6.87277443       7.41819983  T       0.00000000       0.00000000       0.00000000
Pd       6.87262246       1.37626021       7.41564566  T       0.00000000       0.00000000       0.00000000
Pd       1.37986345       1.38097663       7.43637581  T       0.00000000       0.00000000       0.00000000
Pd       8.25214764       8.24764777       5.43068913  T       0.00000000       0.00000000       0.00000000
Pd       5.49550623       8.25337313       5.43137339  T       0.00000000       0.00000000       0.00000000
Pd       2.75043392       8.26767485       5.43725133  T       0.00000000       0.00000000       0.00000000
Pd       0.00479443       8.25406067       5.43103884  T       0.00000000       0.00000000       0.00000000
Pd       8.25299721       5.50020470       5.43209645  T       0.00000000       0.00000000       0.00000000
Pd       5.49969014       5.50396349       5.42936277  T       0.00000000       0.00000000       0.00000000
Pd       4.11601136       1.37909275       7.43984045  T       0.00000000       0.00000000       0.00000000
Pd       2.75123392       5.52003869       5.43720390  T       0.00000000       0.00000000       0.00000000
Pd       9.63133875       6.87281847       7.41781044  T       0.00000000       0.00000000       0.00000000
Pd       4.12304845       9.64051348       7.43247929  T       0.00000000       0.00000000       0.00000000
Pd       2.74402858       8.25891512       9.51670190  T       0.00000000       0.00000000       0.00000000
Pd      -0.03068482       8.25293508       9.41407712  T       0.00000000       0.00000000       0.00000000
Pd       8.25413723       5.50007015       9.40959273  T       0.00000000       0.00000000       0.00000000
Pd       5.50662707       5.50124866       9.42114009  T       0.00000000       0.00000000       0.00000000
Pd       2.75069655       5.51583423       9.42590198  T       0.00000000       0.00000000       0.00000000
Pd      -0.00319266       5.50085048       9.41968906  T       0.00000000       0.00000000       0.00000000
Pd       8.25283428       2.74539558       9.40951772  T       0.00000000       0.00000000       0.00000000
Pd       1.37334831       9.64093264       7.42954707  T       0.00000000       0.00000000       0.00000000
Pd       5.50316751       2.75534902       9.41548094  T       0.00000000       0.00000000       0.00000000
Pd      -0.00340180       2.75748956       9.41409052  T       0.00000000       0.00000000       0.00000000
Pd       8.24730168      -0.00174594       9.40769177  T       0.00000000       0.00000000       0.00000000
Pd       5.52260162      -0.00117617       9.41211676  T       0.00000000       0.00000000       0.00000000
Pd       2.74201022       0.03856767       9.51484367  T       0.00000000       0.00000000       0.00000000
Pd      -0.03409501       0.00132248       9.41252625  T       0.00000000       0.00000000       0.00000000
Pd       9.62665493       9.62642671       7.41084693  T       0.00000000       0.00000000       0.00000000
Pd       6.87416974       9.62540590       7.41077124  T       0.00000000       0.00000000       0.00000000
Pd       2.74862410       2.76799021       9.42028401  T       0.00000000       0.00000000       0.00000000
Pd       0.00156611       5.50409541       5.42877513  T       0.00000000       0.00000000       0.00000000
Pd       8.25271634       2.74721452       5.43064117  T       0.00000000       0.00000000       0.00000000
Pd       5.50190390       2.75859926       5.42941466  T       0.00000000       0.00000000       0.00000000
Pd       1.37558630       1.37558630       3.44537281  F       0.00000000       0.00000000       0.00000000
Pd       8.25351783       8.25351783       1.50000000  F       0.00000000       0.00000000       0.00000000
Pd       5.50234522       8.25351783       1.50000000  F       0.00000000       0.00000000       0.00000000
Pd       2.75117261       8.25351783       1.50000000  F       0.00000000       0.00000000       0.00000000
Pd       0.00000000       8.25351783       1.50000000  F       0.00000000       0.00000000       0.00000000
Pd       8.25351783       5.50234522       1.50000000  F       0.00000000       0.00000000       0.00000000
Pd       5.50234522       5.50234522       1.50000000  F       0.00000000       0.00000000       0.00000000
Pd       4.12675891       1.37558630       3.44537281  F       0.00000000       0.00000000       0.00000000
Pd       2.75117261       5.50234522       1.50000000  F       0.00000000       0.00000000       0.00000000
Pd       8.25351783       2.75117261       1.50000000  F       0.00000000       0.00000000       0.00000000
Pd       5.50234522       2.75117261       1.50000000  F       0.00000000       0.00000000       0.00000000
Pd       2.75117261       2.75117261       1.50000000  F       0.00000000       0.00000000       0.00000000
Pd       0.00000000       2.75117261       1.50000000  F       0.00000000       0.00000000       0.00000000
Pd       8.25351783       0.00000000       1.50000000  F       0.00000000       0.00000000       0.00000000
Pd       5.50234522       0.00000000       1.50000000  F       0.00000000       0.00000000       0.00000000
Pd       2.75117261       0.00000000       1.50000000  F       0.00000000       0.00000000       0.00000000
Pd       0.00000000       5.50234522       1.50000000  F       0.00000000       0.00000000       0.00000000
Pd       6.87793152       1.37558630       3.44537281  F       0.00000000       0.00000000       0.00000000
Pd       9.62910413       1.37558630       3.44537281  F       0.00000000       0.00000000       0.00000000
Pd       1.37558630       4.12675891       3.44537281  F       0.00000000       0.00000000       0.00000000
Pd       2.75115939       2.76210559       5.43887557  T       0.00000000       0.00000000       0.00000000
Pd      -0.00070698       2.75853491       5.42849747  T       0.00000000       0.00000000       0.00000000
Pd       8.25194163      -0.00326979       5.42853711  T       0.00000000       0.00000000       0.00000000
Pd       5.49757499       0.00387466       5.43007090  T       0.00000000       0.00000000       0.00000000
Pd       2.75058631       0.01104790       5.43936582  T       0.00000000       0.00000000       0.00000000
Pd       0.00268766       0.00373961       5.42955379  T       0.00000000       0.00000000       0.00000000
Pd       9.62910413       9.62910413       3.44537281  F       0.00000000       0.00000000       0.00000000
Pd       6.87793152       9.62910413       3.44537281  F       0.00000000       0.00000000       0.00000000
Pd       4.12675891       9.62910413       3.44537281  F       0.00000000       0.00000000       0.00000000
Pd       1.37558630       9.62910413       3.44537281  F       0.00000000       0.00000000       0.00000000
Pd       9.62910413       6.87793152       3.44537281  F       0.00000000       0.00000000       0.00000000
Pd       6.87793152       6.87793152       3.44537281  F       0.00000000       0.00000000       0.00000000
Pd       4.12675891       6.87793152       3.44537281  F       0.00000000       0.00000000       0.00000000
Pd       1.37558630       6.87793152       3.44537281  F       0.00000000       0.00000000       0.00000000
Pd       9.62910413       4.12675891       3.44537281  F       0.00000000       0.00000000       0.00000000
Pd       6.87793152       4.12675891       3.44537281  F       0.00000000       0.00000000       0.00000000
Pd       4.12675891       4.12675891       3.44537281  F       0.00000000       0.00000000       0.00000000
Pd       5.52571907       8.25432584       9.41384967  T       0.00000000       0.00000000       0.00000000
Pd       8.25110255       8.24622502       9.40768122  T       0.00000000       0.00000000       0.00000000
C        2.56899501       9.65445976      10.90405646  T       0.00000000       0.00000000       0.00000000
O        2.42570925       9.64495586      12.08399981  T       0.00000000       0.00000000       0.00000000
