82
Lattice="11.004690437655821 0.0 0.0 0.0 11.004690437655821 0.0 0.0 0.0 27.781491233325184" Properties=species:S:1:pos:R:3:move_mask:L:1:momenta:R:3 adsorbate_info="_JSON {\"site\": {\"coordinates\": [4.585287682356594, 4.585287682356594, 9.281491233325172], \"connectivity\": 3, \"topology\": [24, 25, 29], \"n_vector\": [-0.06797813292928147, -0.06797813292928415, 0.995368246874943], \"h_vector\": [0.0, 1.0, 0.0], \"site_formula\": {\"Pd\": 3}}, \"smiles\": \"Cl[C]=O\", \"mdf\": 2.209315525601215, \"adsorbate_formula\": \"CO\"}" mace_E=-405.387722130747 converged=F n_steps=30 d_min=1.8527064963903148 site_type=unknown dE_rel_meV=0 original_idx=51 rank=109 E_MACE=-405.35113514613266 pbc="T T T"
Pd       0.00000000       0.00000000       1.50000000  F       0.00000000       0.00000000       0.00000000
Pd       4.12467575       6.87929183       7.41607553  T       0.00000000       0.00000000       0.00000000
Pd       1.37226010       6.87837774       7.41783097  T       0.00000000       0.00000000       0.00000000
Pd       9.61939218       4.12745006       7.41316719  T       0.00000000       0.00000000       0.00000000
Pd       6.85903165       4.11526057       7.43623826  T       0.00000000       0.00000000       0.00000000
Pd       4.13656533       4.11795810       7.43553798  T       0.00000000       0.00000000       0.00000000
Pd       1.37077570       4.12840465       7.41498201  T       0.00000000       0.00000000       0.00000000
Pd       9.62081825       1.37533547       7.41167609  T       0.00000000       0.00000000       0.00000000
Pd       6.87711979       6.87855218       7.41468769  T       0.00000000       0.00000000       0.00000000
Pd       6.86636414       1.38578012       7.42376348  T       0.00000000       0.00000000       0.00000000
Pd       1.36869631       1.37376779       7.41272852  T       0.00000000       0.00000000       0.00000000
Pd       8.25218619       8.25354755       5.43201411  T       0.00000000       0.00000000       0.00000000
Pd       5.50129405       8.25459709       5.43232427  T       0.00000000       0.00000000       0.00000000
Pd       2.75130566       8.25265594       5.43169263  T       0.00000000       0.00000000       0.00000000
Pd      -0.00003002       8.25334169       5.43145984  T       0.00000000       0.00000000       0.00000000
Pd       8.25153631       5.50401025       5.42676975  T       0.00000000       0.00000000       0.00000000
Pd       5.50105690       5.49840812       5.43299663  T       0.00000000       0.00000000       0.00000000
Pd       4.12931786       1.38229644       7.42492678  T       0.00000000       0.00000000       0.00000000
Pd       2.74963994       5.50323450       5.42729174  T       0.00000000       0.00000000       0.00000000
Pd       9.62795892       6.87820833       7.41790091  T       0.00000000       0.00000000       0.00000000
Pd       4.12547273       9.63440493       7.41616902  T       0.00000000       0.00000000       0.00000000
Pd       2.75124847       8.25304110       9.41094916  T       0.00000000       0.00000000       0.00000000
Pd       0.00064101       8.25291363       9.41483841  T       0.00000000       0.00000000       0.00000000
Pd       8.25043959       5.50472892       9.41274586  T       0.00000000       0.00000000       0.00000000
Pd       5.49954480       5.54596145       9.41312797  T       0.00000000       0.00000000       0.00000000
Pd       2.74510532       5.50454139       9.41185276  T       0.00000000       0.00000000       0.00000000
Pd      -0.00642622       5.50150205       9.41197374  T       0.00000000       0.00000000       0.00000000
Pd       8.27616538       2.74864835       9.41016677  T       0.00000000       0.00000000       0.00000000
Pd       1.37284845       9.62752038       7.41803720  T       0.00000000       0.00000000       0.00000000
Pd       5.49858837       2.77142681       9.51944394  T       0.00000000       0.00000000       0.00000000
Pd      -0.00990780       2.75146894       9.40936578  T       0.00000000       0.00000000       0.00000000
Pd       8.25430845      -0.00218956       9.41126892  T       0.00000000       0.00000000       0.00000000
Pd       5.49948950      -0.01152431       9.41883018  T       0.00000000       0.00000000       0.00000000
Pd       2.74113791      -0.00307833       9.41033754  T       0.00000000       0.00000000       0.00000000
Pd      -0.00640307      -0.00040586       9.41154430  T       0.00000000       0.00000000       0.00000000
Pd       9.62792981       9.62775094       7.41798641  T       0.00000000       0.00000000       0.00000000
Pd       6.87580783       9.63747156       7.41530117  T       0.00000000       0.00000000       0.00000000
Pd       2.71491349       2.74834439       9.40203128  T       0.00000000       0.00000000       0.00000000
Pd      -0.00213277       5.50244086       5.43075102  T       0.00000000       0.00000000       0.00000000
Pd       8.24534652       2.75290861       5.42879806  T       0.00000000       0.00000000       0.00000000
Pd       5.49900544       2.75285168       5.42616234  T       0.00000000       0.00000000       0.00000000
Pd       1.37558630       1.37558630       3.44537281  F       0.00000000       0.00000000       0.00000000
Pd       8.25351783       8.25351783       1.50000000  F       0.00000000       0.00000000       0.00000000
Pd       5.50234522       8.25351783       1.50000000  F       0.00000000       0.00000000       0.00000000
Pd       2.75117261       8.25351783       1.50000000  F       0.00000000       0.00000000       0.00000000
Pd       0.00000000       8.25351783       1.50000000  F       0.00000000       0.00000000       0.00000000
Pd       8.25351783       5.50234522       1.50000000  F       0.00000000       0.00000000       0.00000000
Pd       5.50234522       5.50234522       1.50000000  F       0.00000000       0.00000000       0.00000000
Pd       4.12675891       1.37558630       3.44537281  F       0.00000000       0.00000000       0.00000000
Pd       2.75117261       5.50234522       1.50000000  F       0.00000000       0.00000000       0.00000000
Pd       8.25351783       2.75117261       1.50000000  F       0.00000000       0.00000000       0.00000000
Pd       5.50234522       2.75117261       1.50000000  F       0.00000000       0.00000000       0.00000000
Pd       2.75117261       2.75117261       1.50000000  F       0.00000000       0.00000000       0.00000000
Pd       0.00000000       2.75117261       1.50000000  F       0.00000000       0.00000000       0.00000000
Pd       8.25351783       0.00000000       1.50000000  F       0.00000000       0.00000000       0.00000000
Pd       5.50234522       0.00000000       1.50000000  F       0.00000000       0.00000000       0.00000000
Pd       2.75117261       0.00000000       1.50000000  F       0.00000000       0.00000000       0.00000000
Pd       0.00000000       5.50234522       1.50000000  F       0.00000000       0.00000000       0.00000000
Pd       6.87793152       1.37558630       3.44537281  F       0.00000000       0.00000000       0.00000000
Pd       9.62910413       1.37558630       3.44537281  F       0.00000000       0.00000000       0.00000000
Pd       1.37558630       4.12675891       3.44537281  F       0.00000000       0.00000000       0.00000000
Pd       2.75339133       2.75204254       5.43398831  T       0.00000000       0.00000000       0.00000000
Pd      -0.00295162       2.75158395       5.43015020  T       0.00000000       0.00000000       0.00000000
Pd       8.25360646      -0.00150200       5.42388235  T       0.00000000       0.00000000       0.00000000
Pd       5.50043911       0.00577861       5.42879309  T       0.00000000       0.00000000       0.00000000
Pd       2.74763565      -0.00148556       5.42456389  T       0.00000000       0.00000000       0.00000000
Pd      -0.00253723      -0.00083724       5.43008407  T       0.00000000       0.00000000       0.00000000
Pd       9.62910413       9.62910413       3.44537281  F       0.00000000       0.00000000       0.00000000
Pd       6.87793152       9.62910413       3.44537281  F       0.00000000       0.00000000       0.00000000
Pd       4.12675891       9.62910413       3.44537281  F       0.00000000       0.00000000       0.00000000
Pd       1.37558630       9.62910413       3.44537281  F       0.00000000       0.00000000       0.00000000
Pd       9.62910413       6.87793152       3.44537281  F       0.00000000       0.00000000       0.00000000
Pd       6.87793152       6.87793152       3.44537281  F       0.00000000       0.00000000       0.00000000
Pd       4.12675891       6.87793152       3.44537281  F       0.00000000       0.00000000       0.00000000
Pd       1.37558630       6.87793152       3.44537281  F       0.00000000       0.00000000       0.00000000
Pd       9.62910413       4.12675891       3.44537281  F       0.00000000       0.00000000       0.00000000
Pd       6.87793152       4.12675891       3.44537281  F       0.00000000       0.00000000       0.00000000
Pd       4.12675891       4.12675891       3.44537281  F       0.00000000       0.00000000       0.00000000
Pd       5.50312163       8.26916439       9.40970238  T       0.00000000       0.00000000       0.00000000
Pd       8.25247609       8.25384574       9.40965592  T       0.00000000       0.00000000       0.00000000
C        5.43749040       2.43060719      11.32482312  T       0.00000000       0.00000000       0.00000000
O        5.38104862       2.26981266      12.47805801  T       0.00000000       0.00000000       0.00000000
