82
Lattice="11.004690437655821 0.0 0.0 0.0 11.004690437655821 0.0 0.0 0.0 27.781491233325184" Properties=species:S:1:pos:R:3:move_mask:L:1:momenta:R:3 adsorbate_info="_JSON {\"site\": {\"coordinates\": [5.5023452188279105, 5.5023452188279105, 9.281491233325172], \"connectivity\": 1, \"topology\": [24], \"n_vector\": [-0.0008737878287209045, -0.0008737878287182571, 0.9999992364945389], \"h_vector\": [1.0, 0.0, 0.0], \"site_formula\": {\"Pd\": 1}}, \"smiles\": \"Cl[C]=O\", \"mdf\": 2.4198275034118604, \"adsorbate_formula\": \"CO\"}" mace_E=-405.7106537949559 converged=T n_steps=75 d_min=1.9727741485217074 site_type=bridge dE_rel_meV=0 original_idx=60 rank=7 E_MACE=-405.7166444154511 pbc="T T T"
Pd       0.00000000       0.00000000       1.50000000  F       0.00000000       0.00000000       0.00000000
Pd       4.11132872       6.87135563       7.42521761  T       0.00000000       0.00000000       0.00000000
Pd       1.36525011       6.86881162       7.43488344  T       0.00000000       0.00000000       0.00000000
Pd       9.61239856       4.12660899       7.42571933  T       0.00000000       0.00000000       0.00000000
Pd       6.85348946       4.12734820       7.43223784  T       0.00000000       0.00000000       0.00000000
Pd       4.11143228       4.11899589       7.42020038  T       0.00000000       0.00000000       0.00000000
Pd       1.36353678       4.12641508       7.43052229  T       0.00000000       0.00000000       0.00000000
Pd       9.62119164       1.37549102       7.41412951  T       0.00000000       0.00000000       0.00000000
Pd       6.85178865       6.86388343       7.43630703  T       0.00000000       0.00000000       0.00000000
Pd       6.87233051       1.37456976       7.41224745  T       0.00000000       0.00000000       0.00000000
Pd       1.36422508       1.37436350       7.41581653  T       0.00000000       0.00000000       0.00000000
Pd       8.24747940       8.24852450       5.43138680  T       0.00000000       0.00000000       0.00000000
Pd       5.49925910       8.24755906       5.43035160  T       0.00000000       0.00000000       0.00000000
Pd       2.74215307       8.24968443       5.43005530  T       0.00000000       0.00000000       0.00000000
Pd      -0.01208680       8.25226028       5.42900494  T       0.00000000       0.00000000       0.00000000
Pd       8.23975777       5.50106815       5.44015414  T       0.00000000       0.00000000       0.00000000
Pd       5.49227268       5.50036825       5.43075104  T       0.00000000       0.00000000       0.00000000
Pd       4.11652313       1.37025295       7.40856730  T       0.00000000       0.00000000       0.00000000
Pd       2.74183287       5.50086166       5.43613782  T       0.00000000       0.00000000       0.00000000
Pd       9.61267871       6.87572652       7.42827448  T       0.00000000       0.00000000       0.00000000
Pd       4.11878659       9.62276594       7.41043387  T       0.00000000       0.00000000       0.00000000
Pd       2.73117033       8.26862040       9.40759612  T       0.00000000       0.00000000       0.00000000
Pd      -0.02337014       8.25763253       9.42124264  T       0.00000000       0.00000000       0.00000000
Pd       8.23596605       5.49611230       9.42066890  T       0.00000000       0.00000000       0.00000000
Pd       5.50440662       5.49049509       9.50944200  T       0.00000000       0.00000000       0.00000000
Pd       2.71113777       5.49089586       9.49272362  T       0.00000000       0.00000000       0.00000000
Pd      -0.01784370       5.50115881       9.42373191  T       0.00000000       0.00000000       0.00000000
Pd       8.23481313       2.74363288       9.41583353  T       0.00000000       0.00000000       0.00000000
Pd       1.36351784       9.62261808       7.41718152  T       0.00000000       0.00000000       0.00000000
Pd       5.48319928       2.71520289       9.40667219  T       0.00000000       0.00000000       0.00000000
Pd      -0.02488317       2.74729223       9.42034832  T       0.00000000       0.00000000       0.00000000
Pd       8.25119890      -0.00316561       9.40636704  T       0.00000000       0.00000000       0.00000000
Pd       5.50343341      -0.00671444       9.40966163  T       0.00000000       0.00000000       0.00000000
Pd       2.74669142      -0.01016840       9.41241025  T       0.00000000       0.00000000       0.00000000
Pd      -0.00463930       0.00214760       9.40997962  T       0.00000000       0.00000000       0.00000000
Pd       9.62056067       9.62718278       7.41502852  T       0.00000000       0.00000000       0.00000000
Pd       6.87208892       9.62112558       7.41533484  T       0.00000000       0.00000000       0.00000000
Pd       2.72852938       2.71445952       9.40927083  T       0.00000000       0.00000000       0.00000000
Pd      -0.01172856       5.50251619       5.43792056  T       0.00000000       0.00000000       0.00000000
Pd       8.24793334       2.75276193       5.42974723  T       0.00000000       0.00000000       0.00000000
Pd       5.49903990       2.75001949       5.42756365  T       0.00000000       0.00000000       0.00000000
Pd       1.37558630       1.37558630       3.44537281  F       0.00000000       0.00000000       0.00000000
Pd       8.25351783       8.25351783       1.50000000  F       0.00000000       0.00000000       0.00000000
Pd       5.50234522       8.25351783       1.50000000  F       0.00000000       0.00000000       0.00000000
Pd       2.75117261       8.25351783       1.50000000  F       0.00000000       0.00000000       0.00000000
Pd       0.00000000       8.25351783       1.50000000  F       0.00000000       0.00000000       0.00000000
Pd       8.25351783       5.50234522       1.50000000  F       0.00000000       0.00000000       0.00000000
Pd       5.50234522       5.50234522       1.50000000  F       0.00000000       0.00000000       0.00000000
Pd       4.12675891       1.37558630       3.44537281  F       0.00000000       0.00000000       0.00000000
Pd       2.75117261       5.50234522       1.50000000  F       0.00000000       0.00000000       0.00000000
Pd       8.25351783       2.75117261       1.50000000  F       0.00000000       0.00000000       0.00000000
Pd       5.50234522       2.75117261       1.50000000  F       0.00000000       0.00000000       0.00000000
Pd       2.75117261       2.75117261       1.50000000  F       0.00000000       0.00000000       0.00000000
Pd       0.00000000       2.75117261       1.50000000  F       0.00000000       0.00000000       0.00000000
Pd       8.25351783       0.00000000       1.50000000  F       0.00000000       0.00000000       0.00000000
Pd       5.50234522       0.00000000       1.50000000  F       0.00000000       0.00000000       0.00000000
Pd       2.75117261       0.00000000       1.50000000  F       0.00000000       0.00000000       0.00000000
Pd       0.00000000       5.50234522       1.50000000  F       0.00000000       0.00000000       0.00000000
Pd       6.87793152       1.37558630       3.44537281  F       0.00000000       0.00000000       0.00000000
Pd       9.62910413       1.37558630       3.44537281  F       0.00000000       0.00000000       0.00000000
Pd       1.37558630       4.12675891       3.44537281  F       0.00000000       0.00000000       0.00000000
Pd       2.74092093       2.74961866       5.42752519  T       0.00000000       0.00000000       0.00000000
Pd      -0.01172837       2.75005825       5.42762367  T       0.00000000       0.00000000       0.00000000
Pd       8.25059402      -0.00198556       5.43099898  T       0.00000000       0.00000000       0.00000000
Pd       5.50091825      -0.00312294       5.42957458  T       0.00000000       0.00000000       0.00000000
Pd       2.74702813      -0.00345379       5.42884145  T       0.00000000       0.00000000       0.00000000
Pd      -0.00320448      -0.00101031       5.43118955  T       0.00000000       0.00000000       0.00000000
Pd       9.62910413       9.62910413       3.44537281  F       0.00000000       0.00000000       0.00000000
Pd       6.87793152       9.62910413       3.44537281  F       0.00000000       0.00000000       0.00000000
Pd       4.12675891       9.62910413       3.44537281  F       0.00000000       0.00000000       0.00000000
Pd       1.37558630       9.62910413       3.44537281  F       0.00000000       0.00000000       0.00000000
Pd       9.62910413       6.87793152       3.44537281  F       0.00000000       0.00000000       0.00000000
Pd       6.87793152       6.87793152       3.44537281  F       0.00000000       0.00000000       0.00000000
Pd       4.12675891       6.87793152       3.44537281  F       0.00000000       0.00000000       0.00000000
Pd       1.37558630       6.87793152       3.44537281  F       0.00000000       0.00000000       0.00000000
Pd       9.62910413       4.12675891       3.44537281  F       0.00000000       0.00000000       0.00000000
Pd       6.87793152       4.12675891       3.44537281  F       0.00000000       0.00000000       0.00000000
Pd       4.12675891       4.12675891       3.44537281  F       0.00000000       0.00000000       0.00000000
Pd       5.48076801       8.26808595       9.40562448  T       0.00000000       0.00000000       0.00000000
Pd       8.23260708       8.25396430       9.41639616  T       0.00000000       0.00000000       0.00000000
C        4.09707534       5.25350326      10.87400356  T       0.00000000       0.00000000       0.00000000
O        4.07980088       5.05505523      12.04619945  T       0.00000000       0.00000000       0.00000000
