82
Lattice="11.004690437655821 0.0 0.0 0.0 11.004690437655821 0.0 0.0 0.0 27.781491233325184" Properties=species:S:1:pos:R:3:move_mask:L:1:momenta:R:3 adsorbate_info="_JSON {\"site\": {\"coordinates\": [1.8341150729426368, 7.336460291770547, 9.281491233325172], \"connectivity\": 3, \"topology\": [21, 22, 25], \"n_vector\": [-0.0675343574825882, -0.06842188160281827, 0.9953680508622647], \"h_vector\": [0.0, 1.0, 0.0], \"site_formula\": {\"Pd\": 3}}, \"smiles\": \"Cl[C]=O\", \"mdf\": 2.208911728910734, \"adsorbate_formula\": \"CO\"}" mace_E=-405.3877135256997 converged=F n_steps=30 d_min=1.8521211223927585 site_type=unknown dE_rel_meV=0 original_idx=25 rank=108 E_MACE=-405.3789440635587 pbc="T T T"
Pd       0.00000000       0.00000000       1.50000000  F       0.00000000       0.00000000       0.00000000
Pd       4.10787227       6.86644065       7.43627308  T       0.00000000       0.00000000       0.00000000
Pd       1.38540681       6.86917060       7.43550810  T       0.00000000       0.00000000       0.00000000
Pd       9.62222943       4.12493077       7.41272977  T       0.00000000       0.00000000       0.00000000
Pd       6.86969808       4.12650878       7.41168688  T       0.00000000       0.00000000       0.00000000
Pd       4.11524441       4.13694451       7.42374640  T       0.00000000       0.00000000       0.00000000
Pd       1.37814478       4.13344288       7.42487600  T       0.00000000       0.00000000       0.00000000
Pd       9.62637105       1.37399126       7.41805669  T       0.00000000       0.00000000       0.00000000
Pd       6.86826569       6.87862551       7.41318729  T       0.00000000       0.00000000       0.00000000
Pd       6.87676303       1.37423008       7.41799772  T       0.00000000       0.00000000       0.00000000
Pd       1.37431131       1.38090239       7.41619632  T       0.00000000       0.00000000       0.00000000
Pd       8.25138692       8.25361694       5.43075500  T       0.00000000       0.00000000       0.00000000
Pd       5.50037057       8.25518324       5.42678743  T       0.00000000       0.00000000       0.00000000
Pd       2.74990108       8.24959838       5.43300316  T       0.00000000       0.00000000       0.00000000
Pd      -0.00152760       8.25442373       5.42728515  T       0.00000000       0.00000000       0.00000000
Pd       8.25058103       5.50275611       5.43015281  T       0.00000000       0.00000000       0.00000000
Pd       5.49420178       5.50408849       5.42880842  T       0.00000000       0.00000000       0.00000000
Pd       4.12462876       1.38398127       7.41533010  T       0.00000000       0.00000000       0.00000000
Pd       2.74785942       5.50403230       5.42617124  T       0.00000000       0.00000000       0.00000000
Pd       9.62430599       6.87958049       7.41498916  T       0.00000000       0.00000000       0.00000000
Pd       4.12595399       9.62975782       7.41470177  T       0.00000000       0.00000000       0.00000000
Pd       2.74837056       8.29721639       9.41313679  T       0.00000000       0.00000000       0.00000000
Pd      -0.00604902       8.25571701       9.41186412  T       0.00000000       0.00000000       0.00000000
Pd       8.24369246       5.50264061       9.40938322  T       0.00000000       0.00000000       0.00000000
Pd       5.52507344       5.49981135       9.41017275  T       0.00000000       0.00000000       0.00000000
Pd       2.74749559       5.52271826       9.51933547  T       0.00000000       0.00000000       0.00000000
Pd      -0.03618627       5.49950794       9.40200202  T       0.00000000       0.00000000       0.00000000
Pd       8.24712807       2.75076016       9.41156950  T       0.00000000       0.00000000       0.00000000
Pd       1.37350404       9.63050359       7.41608478  T       0.00000000       0.00000000       0.00000000
Pd       5.50316757       2.74898896       9.41127346  T       0.00000000       0.00000000       0.00000000
Pd      -0.01003784       2.74808282       9.41034595  T       0.00000000       0.00000000       0.00000000
Pd       8.25415436      -0.00061005       9.41485902  T       0.00000000       0.00000000       0.00000000
Pd       5.50130052       0.00033387       9.40966133  T       0.00000000       0.00000000       0.00000000
Pd       2.75195408       0.01573146       9.40971592  T       0.00000000       0.00000000       0.00000000
Pd       0.00007639      -0.00048387       9.41097543  T       0.00000000       0.00000000       0.00000000
Pd       9.62577840       9.62954791       7.41784709  T       0.00000000       0.00000000       0.00000000
Pd       6.87679557       9.62938185       7.41791469  T       0.00000000       0.00000000       0.00000000
Pd       2.74832146       2.73976880       9.41891793  T       0.00000000       0.00000000       0.00000000
Pd       0.00222771       5.50321438       5.43397960  T       0.00000000       0.00000000       0.00000000
Pd       8.25098591       2.75032604       5.43008760  T       0.00000000       0.00000000       0.00000000
Pd       5.50245008       2.74967326       5.42388768  T       0.00000000       0.00000000       0.00000000
Pd       1.37558630       1.37558630       3.44537281  F       0.00000000       0.00000000       0.00000000
Pd       8.25351783       8.25351783       1.50000000  F       0.00000000       0.00000000       0.00000000
Pd       5.50234522       8.25351783       1.50000000  F       0.00000000       0.00000000       0.00000000
Pd       2.75117261       8.25351783       1.50000000  F       0.00000000       0.00000000       0.00000000
Pd       0.00000000       8.25351783       1.50000000  F       0.00000000       0.00000000       0.00000000
Pd       8.25351783       5.50234522       1.50000000  F       0.00000000       0.00000000       0.00000000
Pd       5.50234522       5.50234522       1.50000000  F       0.00000000       0.00000000       0.00000000
Pd       4.12675891       1.37558630       3.44537281  F       0.00000000       0.00000000       0.00000000
Pd       2.75117261       5.50234522       1.50000000  F       0.00000000       0.00000000       0.00000000
Pd       8.25351783       2.75117261       1.50000000  F       0.00000000       0.00000000       0.00000000
Pd       5.50234522       2.75117261       1.50000000  F       0.00000000       0.00000000       0.00000000
Pd       2.75117261       2.75117261       1.50000000  F       0.00000000       0.00000000       0.00000000
Pd       0.00000000       2.75117261       1.50000000  F       0.00000000       0.00000000       0.00000000
Pd       8.25351783       0.00000000       1.50000000  F       0.00000000       0.00000000       0.00000000
Pd       5.50234522       0.00000000       1.50000000  F       0.00000000       0.00000000       0.00000000
Pd       2.75117261       0.00000000       1.50000000  F       0.00000000       0.00000000       0.00000000
Pd       0.00000000       5.50234522       1.50000000  F       0.00000000       0.00000000       0.00000000
Pd       6.87793152       1.37558630       3.44537281  F       0.00000000       0.00000000       0.00000000
Pd       9.62910413       1.37558630       3.44537281  F       0.00000000       0.00000000       0.00000000
Pd       1.37558630       4.12675891       3.44537281  F       0.00000000       0.00000000       0.00000000
Pd       2.74927967       2.75695069       5.42878278  T       0.00000000       0.00000000       0.00000000
Pd      -0.00353354       2.74967207       5.42455716  T       0.00000000       0.00000000       0.00000000
Pd       8.25348930      -0.00017837       5.43146986  T       0.00000000       0.00000000       0.00000000
Pd       5.50101307       0.00003159       5.43202562  T       0.00000000       0.00000000       0.00000000
Pd       2.75012298       0.00109130       5.43233622  T       0.00000000       0.00000000       0.00000000
Pd       0.00013334      -0.00086223       5.43170112  T       0.00000000       0.00000000       0.00000000
Pd       9.62910413       9.62910413       3.44537281  F       0.00000000       0.00000000       0.00000000
Pd       6.87793152       9.62910413       3.44537281  F       0.00000000       0.00000000       0.00000000
Pd       4.12675891       9.62910413       3.44537281  F       0.00000000       0.00000000       0.00000000
Pd       1.37558630       9.62910413       3.44537281  F       0.00000000       0.00000000       0.00000000
Pd       9.62910413       6.87793152       3.44537281  F       0.00000000       0.00000000       0.00000000
Pd       6.87793152       6.87793152       3.44537281  F       0.00000000       0.00000000       0.00000000
Pd       4.12675891       6.87793152       3.44537281  F       0.00000000       0.00000000       0.00000000
Pd       1.37558630       6.87793152       3.44537281  F       0.00000000       0.00000000       0.00000000
Pd       9.62910413       4.12675891       3.44537281  F       0.00000000       0.00000000       0.00000000
Pd       6.87793152       4.12675891       3.44537281  F       0.00000000       0.00000000       0.00000000
Pd       4.12675891       4.12675891       3.44537281  F       0.00000000       0.00000000       0.00000000
Pd       5.49927582       8.25590261       9.41275417  T       0.00000000       0.00000000       0.00000000
Pd       8.24710700       8.25267105       9.41200126  T       0.00000000       0.00000000       0.00000000
C        2.68526318       5.18043208      11.32441616  T       0.00000000       0.00000000       0.00000000
O        2.62820056       5.01920264      12.47756616  T       0.00000000       0.00000000       0.00000000
