82
Lattice="11.004690437655821 0.0 0.0 0.0 11.004690437655821 0.0 0.0 0.0 27.781491233325184" Properties=species:S:1:pos:R:3:move_mask:L:1:momenta:R:3 adsorbate_info="_JSON {\"site\": {\"coordinates\": [1.3755863047069776, 8.253517828241865, 9.281491233325172], \"connectivity\": 2, \"topology\": [21, 22], \"n_vector\": [0.002976009140054164, 0.008628727708381903, 0.999958343346228], \"h_vector\": [1.0, 0.0, 0.0], \"site_formula\": {\"Pd\": 2}}, \"smiles\": \"Cl[C]=O\", \"mdf\": 2.3376861318170534, \"adsorbate_formula\": \"CO\"}" mace_E=-405.3873790472612 converged=T n_steps=26 d_min=1.9716294021935703 site_type=unknown dE_rel_meV=0 original_idx=19 rank=2 E_MACE=-405.7179224148362 pbc="T T T"
Pd       0.00000000       0.00000000       1.50000000  F       0.00000000       0.00000000       0.00000000
Pd       4.12076554       6.87852349       7.41545163  T       0.00000000       0.00000000       0.00000000
Pd       1.36856092       6.88761727       7.43743212  T       0.00000000       0.00000000       0.00000000
Pd       9.62934473       4.13923684       7.41584274  T       0.00000000       0.00000000       0.00000000
Pd       6.87578332       4.12659262       7.41466549  T       0.00000000       0.00000000       0.00000000
Pd       4.12473536       4.12669438       7.41632602  T       0.00000000       0.00000000       0.00000000
Pd       1.37391945       4.14076544       7.41900301  T       0.00000000       0.00000000       0.00000000
Pd       9.62822805       1.37843837       7.41552758  T       0.00000000       0.00000000       0.00000000
Pd       6.88031940       6.87902432       7.41561380  T       0.00000000       0.00000000       0.00000000
Pd       6.87641012       1.37509448       7.41512876  T       0.00000000       0.00000000       0.00000000
Pd       1.37525319       1.37428697       7.41959158  T       0.00000000       0.00000000       0.00000000
Pd       8.25609453       8.25603866       5.43522869  T       0.00000000       0.00000000       0.00000000
Pd       5.49894776       8.25494988       5.43262496  T       0.00000000       0.00000000       0.00000000
Pd       2.74201431       8.25613470       5.43732562  T       0.00000000       0.00000000       0.00000000
Pd      -0.00225803       8.25636040       5.43795809  T       0.00000000       0.00000000       0.00000000
Pd       8.25165605       5.50305295       5.42726318  T       0.00000000       0.00000000       0.00000000
Pd       5.50051926       5.50357008       5.43117776  T       0.00000000       0.00000000       0.00000000
Pd       4.12531616       1.37607331       7.41719816  T       0.00000000       0.00000000       0.00000000
Pd       2.75042852       5.50259139       5.42804505  T       0.00000000       0.00000000       0.00000000
Pd       9.62833770       6.88515911       7.43013024  T       0.00000000       0.00000000       0.00000000
Pd       4.11628459       9.63008425       7.41936117  T       0.00000000       0.00000000       0.00000000
Pd       2.78480444       8.24997261       9.41976034  T       0.00000000       0.00000000       0.00000000
Pd       0.01206136       8.28743624       9.51138070  T       0.00000000       0.00000000       0.00000000
Pd       8.24070831       5.49526164       9.41204678  T       0.00000000       0.00000000       0.00000000
Pd       5.49859973       5.49990028       9.40978031  T       0.00000000       0.00000000       0.00000000
Pd       2.75678129       5.49958558       9.41734161  T       0.00000000       0.00000000       0.00000000
Pd      -0.00582996       5.50150029       9.43169155  T       0.00000000       0.00000000       0.00000000
Pd       8.25097096       2.75321413       9.40888591  T       0.00000000       0.00000000       0.00000000
Pd       1.35464092       9.61689440       7.45732027  T       0.00000000       0.00000000       0.00000000
Pd       5.50311766       2.75109836       9.40886723  T       0.00000000       0.00000000       0.00000000
Pd       0.00029456       2.77479714       9.41478088  T       0.00000000       0.00000000       0.00000000
Pd       8.24660412       0.00948344       9.41598836  T       0.00000000       0.00000000       0.00000000
Pd       5.49872634       0.00218410       9.41128101  T       0.00000000       0.00000000       0.00000000
Pd       2.75088247       0.00478229       9.42093797  T       0.00000000       0.00000000       0.00000000
Pd      -0.00766388       0.05036256       9.41956277  T       0.00000000       0.00000000       0.00000000
Pd       9.63260679       9.62896361       7.43977744  T       0.00000000       0.00000000       0.00000000
Pd       6.88152373       9.62977421       7.41859803  T       0.00000000       0.00000000       0.00000000
Pd       2.75272272       2.75331057       9.41096069  T       0.00000000       0.00000000       0.00000000
Pd      -0.00017877       5.51012893       5.43363739  T       0.00000000       0.00000000       0.00000000
Pd       8.25453629       2.75199281       5.43108900  T       0.00000000       0.00000000       0.00000000
Pd       5.50185533       2.75107765       5.43152173  T       0.00000000       0.00000000       0.00000000
Pd       1.37558630       1.37558630       3.44537281  F       0.00000000       0.00000000       0.00000000
Pd       8.25351783       8.25351783       1.50000000  F       0.00000000       0.00000000       0.00000000
Pd       5.50234522       8.25351783       1.50000000  F       0.00000000       0.00000000       0.00000000
Pd       2.75117261       8.25351783       1.50000000  F       0.00000000       0.00000000       0.00000000
Pd       0.00000000       8.25351783       1.50000000  F       0.00000000       0.00000000       0.00000000
Pd       8.25351783       5.50234522       1.50000000  F       0.00000000       0.00000000       0.00000000
Pd       5.50234522       5.50234522       1.50000000  F       0.00000000       0.00000000       0.00000000
Pd       4.12675891       1.37558630       3.44537281  F       0.00000000       0.00000000       0.00000000
Pd       2.75117261       5.50234522       1.50000000  F       0.00000000       0.00000000       0.00000000
Pd       8.25351783       2.75117261       1.50000000  F       0.00000000       0.00000000       0.00000000
Pd       5.50234522       2.75117261       1.50000000  F       0.00000000       0.00000000       0.00000000
Pd       2.75117261       2.75117261       1.50000000  F       0.00000000       0.00000000       0.00000000
Pd       0.00000000       2.75117261       1.50000000  F       0.00000000       0.00000000       0.00000000
Pd       8.25351783       0.00000000       1.50000000  F       0.00000000       0.00000000       0.00000000
Pd       5.50234522       0.00000000       1.50000000  F       0.00000000       0.00000000       0.00000000
Pd       2.75117261       0.00000000       1.50000000  F       0.00000000       0.00000000       0.00000000
Pd       0.00000000       5.50234522       1.50000000  F       0.00000000       0.00000000       0.00000000
Pd       6.87793152       1.37558630       3.44537281  F       0.00000000       0.00000000       0.00000000
Pd       9.62910413       1.37558630       3.44537281  F       0.00000000       0.00000000       0.00000000
Pd       1.37558630       4.12675891       3.44537281  F       0.00000000       0.00000000       0.00000000
Pd       2.74944346       2.75080235       5.43303370  T       0.00000000       0.00000000       0.00000000
Pd       0.00083604       2.75319119       5.43266781  T       0.00000000       0.00000000       0.00000000
Pd       8.25203875       0.00101167       5.42889906  T       0.00000000       0.00000000       0.00000000
Pd       5.49933867      -0.00150479       5.43305824  T       0.00000000       0.00000000       0.00000000
Pd       2.74798883      -0.00060661       5.43237591  T       0.00000000       0.00000000       0.00000000
Pd      -0.00012243      -0.00427785       5.43857170  T       0.00000000       0.00000000       0.00000000
Pd       9.62910413       9.62910413       3.44537281  F       0.00000000       0.00000000       0.00000000
Pd       6.87793152       9.62910413       3.44537281  F       0.00000000       0.00000000       0.00000000
Pd       4.12675891       9.62910413       3.44537281  F       0.00000000       0.00000000       0.00000000
Pd       1.37558630       9.62910413       3.44537281  F       0.00000000       0.00000000       0.00000000
Pd       9.62910413       6.87793152       3.44537281  F       0.00000000       0.00000000       0.00000000
Pd       6.87793152       6.87793152       3.44537281  F       0.00000000       0.00000000       0.00000000
Pd       4.12675891       6.87793152       3.44537281  F       0.00000000       0.00000000       0.00000000
Pd       1.37558630       6.87793152       3.44537281  F       0.00000000       0.00000000       0.00000000
Pd       9.62910413       4.12675891       3.44537281  F       0.00000000       0.00000000       0.00000000
Pd       6.87793152       4.12675891       3.44537281  F       0.00000000       0.00000000       0.00000000
Pd       4.12675891       4.12675891       3.44537281  F       0.00000000       0.00000000       0.00000000
Pd       5.50769347       8.25379675       9.41546501  T       0.00000000       0.00000000       0.00000000
Pd       8.23099450       8.25257082       9.42435342  T       0.00000000       0.00000000       0.00000000
C       -0.38800113       7.78687456      11.23784172  T       0.00000000       0.00000000       0.00000000
O       -0.58405150       7.55774323      12.36618175  T       0.00000000       0.00000000       0.00000000
