82
Lattice="11.004690437655821 0.0 0.0 0.0 11.004690437655821 0.0 0.0 0.0 27.781491233325184" Properties=species:S:1:pos:R:3:move_mask:L:1:momenta:R:3 adsorbate_info="_JSON {\"site\": {\"coordinates\": [6.419402755299228, 10.087632901184502, 9.281491233325172], \"connectivity\": 3, \"topology\": [31, 32, 78], \"n_vector\": [0.07004896474505055, -0.05372882118058668, 0.9960955558141453], \"h_vector\": [-1.0, 0.0, 0.0], \"site_formula\": {\"Pd\": 3}}, \"smiles\": \"Cl[C]=O\", \"mdf\": 2.6914445949847807, \"adsorbate_formula\": \"CO\"}" mace_E=-404.0819256637024 converged=T n_steps=200 d_min=3.563449015089784 site_type=bridge dE_rel_meV=0 original_idx=71 rank=4 E_MACE=-405.7173609018637 pbc="T T T"
Pd       0.00000000       0.00000000       1.50000000  F       0.00000000       0.00000000       0.00000000
Pd       4.12897647       6.88811535       7.38661835  T       0.00000000       0.00000000       0.00000000
Pd       1.37562737       6.87850765       7.38387743  T       0.00000000       0.00000000       0.00000000
Pd       9.62963268       4.12795520       7.38501615  T       0.00000000       0.00000000       0.00000000
Pd       6.88013672       4.14444946       7.37435422  T       0.00000000       0.00000000       0.00000000
Pd       4.12450745       4.13890019       7.37362440  T       0.00000000       0.00000000       0.00000000
Pd       1.37484080       4.12526699       7.38458569  T       0.00000000       0.00000000       0.00000000
Pd       9.64669403       1.37659719       7.37587281  T       0.00000000       0.00000000       0.00000000
Pd       6.87414567       6.88457545       7.38819011  T       0.00000000       0.00000000       0.00000000
Pd       6.90116248       1.40420120       7.32508957  T       0.00000000       0.00000000       0.00000000
Pd       1.38008281       1.37330130       7.38736668  T       0.00000000       0.00000000       0.00000000
Pd       8.25361169       8.25125729       5.41463944  T       0.00000000       0.00000000       0.00000000
Pd       5.50022668       8.25055335       5.41571571  T       0.00000000       0.00000000       0.00000000
Pd       2.75201207       8.25460618       5.41915481  T       0.00000000       0.00000000       0.00000000
Pd       0.00205166       8.25180378       5.41363086  T       0.00000000       0.00000000       0.00000000
Pd       8.25640815       5.50239265       5.41231949  T       0.00000000       0.00000000       0.00000000
Pd       5.50250499       5.50727093       5.41049253  T       0.00000000       0.00000000       0.00000000
Pd       4.14263171       1.38817152       7.36661090  T       0.00000000       0.00000000       0.00000000
Pd       2.74810517       5.50358965       5.41265950  T       0.00000000       0.00000000       0.00000000
Pd       9.62734208       6.87737346       7.38443000  T       0.00000000       0.00000000       0.00000000
Pd       4.12912641       9.63558264       7.37748591  T       0.00000000       0.00000000       0.00000000
Pd       2.76217356       8.26099804       9.35124230  T       0.00000000       0.00000000       0.00000000
Pd      -0.00063753       8.25265328       9.34937791  T       0.00000000       0.00000000       0.00000000
Pd       8.25319789       5.50193948       9.35102361  T       0.00000000       0.00000000       0.00000000
Pd       5.50166250       5.53337873       9.34549005  T       0.00000000       0.00000000       0.00000000
Pd       2.75045321       5.50480187       9.34825368  T       0.00000000       0.00000000       0.00000000
Pd       0.00097370       5.50289136       9.35035764  T       0.00000000       0.00000000       0.00000000
Pd       8.24469498       2.74193012       9.33804594  T       0.00000000       0.00000000       0.00000000
Pd       1.38174058       9.62854364       7.38575159  T       0.00000000       0.00000000       0.00000000
Pd       5.50136014       2.76771750       9.33157545  T       0.00000000       0.00000000       0.00000000
Pd      -0.00187591       2.75126726       9.35142519  T       0.00000000       0.00000000       0.00000000
Pd       8.25814947       0.00109784       9.33531795  T       0.00000000       0.00000000       0.00000000
Pd       5.50482355      -0.02221213       9.26291601  T       0.00000000       0.00000000       0.00000000
Pd       2.80401363      -0.00556460       9.35551582  T       0.00000000       0.00000000       0.00000000
Pd       0.02160563      -0.00241080       9.34832804  T       0.00000000       0.00000000       0.00000000
Pd       9.64145480       9.62654013       7.37486679  T       0.00000000       0.00000000       0.00000000
Pd       6.89619023       9.63708698       7.35426303  T       0.00000000       0.00000000       0.00000000
Pd       2.76629837       2.74058618       9.34458490  T       0.00000000       0.00000000       0.00000000
Pd      -0.00076266       5.50149239       5.41557037  T       0.00000000       0.00000000       0.00000000
Pd       8.25316066       2.74974949       5.41730578  T       0.00000000       0.00000000       0.00000000
Pd       5.49954558       2.75962169       5.40874049  T       0.00000000       0.00000000       0.00000000
Pd       1.37558630       1.37558630       3.44537281  F       0.00000000       0.00000000       0.00000000
Pd       8.25351783       8.25351783       1.50000000  F       0.00000000       0.00000000       0.00000000
Pd       5.50234522       8.25351783       1.50000000  F       0.00000000       0.00000000       0.00000000
Pd       2.75117261       8.25351783       1.50000000  F       0.00000000       0.00000000       0.00000000
Pd       0.00000000       8.25351783       1.50000000  F       0.00000000       0.00000000       0.00000000
Pd       8.25351783       5.50234522       1.50000000  F       0.00000000       0.00000000       0.00000000
Pd       5.50234522       5.50234522       1.50000000  F       0.00000000       0.00000000       0.00000000
Pd       4.12675891       1.37558630       3.44537281  F       0.00000000       0.00000000       0.00000000
Pd       2.75117261       5.50234522       1.50000000  F       0.00000000       0.00000000       0.00000000
Pd       8.25351783       2.75117261       1.50000000  F       0.00000000       0.00000000       0.00000000
Pd       5.50234522       2.75117261       1.50000000  F       0.00000000       0.00000000       0.00000000
Pd       2.75117261       2.75117261       1.50000000  F       0.00000000       0.00000000       0.00000000
Pd       0.00000000       2.75117261       1.50000000  F       0.00000000       0.00000000       0.00000000
Pd       8.25351783       0.00000000       1.50000000  F       0.00000000       0.00000000       0.00000000
Pd       5.50234522       0.00000000       1.50000000  F       0.00000000       0.00000000       0.00000000
Pd       2.75117261       0.00000000       1.50000000  F       0.00000000       0.00000000       0.00000000
Pd       0.00000000       5.50234522       1.50000000  F       0.00000000       0.00000000       0.00000000
Pd       6.87793152       1.37558630       3.44537281  F       0.00000000       0.00000000       0.00000000
Pd       9.62910413       1.37558630       3.44537281  F       0.00000000       0.00000000       0.00000000
Pd       1.37558630       4.12675891       3.44537281  F       0.00000000       0.00000000       0.00000000
Pd       2.75016948       2.74923772       5.41784611  T       0.00000000       0.00000000       0.00000000
Pd       0.00155365       2.75196198       5.41476147  T       0.00000000       0.00000000       0.00000000
Pd       8.26434525      -0.00142460       5.40589257  T       0.00000000       0.00000000       0.00000000
Pd       5.50319728       0.00202249       5.43028686  T       0.00000000       0.00000000       0.00000000
Pd       2.74750460      -0.00092997       5.41517080  T       0.00000000       0.00000000       0.00000000
Pd       0.00538085       0.00030762       5.41258498  T       0.00000000       0.00000000       0.00000000
Pd       9.62910413       9.62910413       3.44537281  F       0.00000000       0.00000000       0.00000000
Pd       6.87793152       9.62910413       3.44537281  F       0.00000000       0.00000000       0.00000000
Pd       4.12675891       9.62910413       3.44537281  F       0.00000000       0.00000000       0.00000000
Pd       1.37558630       9.62910413       3.44537281  F       0.00000000       0.00000000       0.00000000
Pd       9.62910413       6.87793152       3.44537281  F       0.00000000       0.00000000       0.00000000
Pd       6.87793152       6.87793152       3.44537281  F       0.00000000       0.00000000       0.00000000
Pd       4.12675891       6.87793152       3.44537281  F       0.00000000       0.00000000       0.00000000
Pd       1.37558630       6.87793152       3.44537281  F       0.00000000       0.00000000       0.00000000
Pd       9.62910413       4.12675891       3.44537281  F       0.00000000       0.00000000       0.00000000
Pd       6.87793152       4.12675891       3.44537281  F       0.00000000       0.00000000       0.00000000
Pd       4.12675891       4.12675891       3.44537281  F       0.00000000       0.00000000       0.00000000
Pd       5.48982259       8.33122605       9.38789865  T       0.00000000       0.00000000       0.00000000
Pd       8.25130482       8.25770261       9.34191352  T       0.00000000       0.00000000       0.00000000
C        4.49609838      10.10505744      11.99597035  T       0.00000000       0.00000000       0.00000000
O        4.65810771       9.07133531      12.47144995  T       0.00000000       0.00000000       0.00000000
