82
Lattice="11.004690437655821 0.0 0.0 0.0 11.004690437655821 0.0 0.0 0.0 27.781491233325184" Properties=species:S:1:pos:R:3:move_mask:L:1:momenta:R:3 adsorbate_info="_JSON {\"site\": {\"coordinates\": [0.9170575364713184, 4.585287682356593, 9.281491233325172], \"connectivity\": 3, \"topology\": [25, 26, 30], \"n_vector\": [0.05195252015547374, -0.07182129126094006, 0.9960635711495056], \"h_vector\": [0.0, 1.0, 0.0], \"site_formula\": {\"Pd\": 3}}, \"smiles\": \"Cl[C]=O\", \"mdf\": 2.3250841536256917, \"adsorbate_formula\": \"CO\"}" mace_E=-405.716066093653 converged=T n_steps=59 d_min=1.8417927778429692 site_type=bridge dE_rel_meV=0 original_idx=11 rank=56 E_MACE=-405.39030176793455 pbc="T T T"
Pd       0.00000000       0.00000000       1.50000000  F       0.00000000       0.00000000       0.00000000
Pd       4.13100815       6.87270239       7.41255721  T       0.00000000       0.00000000       0.00000000
Pd       1.37541724       6.87203684       7.40727272  T       0.00000000       0.00000000       0.00000000
Pd       9.65168149       4.11650861       7.43730811  T       0.00000000       0.00000000       0.00000000
Pd       6.89443920       4.12354226       7.42262464  T       0.00000000       0.00000000       0.00000000
Pd       4.13303903       4.11508759       7.43015356  T       0.00000000       0.00000000       0.00000000
Pd       1.38760217       4.11945318       7.42588748  T       0.00000000       0.00000000       0.00000000
Pd       9.65167324       1.37746302       7.43428760  T       0.00000000       0.00000000       0.00000000
Pd       6.87986586       6.87594814       7.41871722  T       0.00000000       0.00000000       0.00000000
Pd       6.89471049       1.37494169       7.42016203  T       0.00000000       0.00000000       0.00000000
Pd       1.38769248       1.37247059       7.42247471  T       0.00000000       0.00000000       0.00000000
Pd       8.25273786       8.25104599       5.43328862  T       0.00000000       0.00000000       0.00000000
Pd       5.50392320       8.25182570       5.43021554  T       0.00000000       0.00000000       0.00000000
Pd       2.75281045       8.25118195       5.42778156  T       0.00000000       0.00000000       0.00000000
Pd      -0.00234271       8.25108616       5.42988139  T       0.00000000       0.00000000       0.00000000
Pd       8.25617751       5.49974115       5.43033251  T       0.00000000       0.00000000       0.00000000
Pd       5.50958666       5.50045168       5.42963696  T       0.00000000       0.00000000       0.00000000
Pd       4.13502609       1.37899023       7.42669324  T       0.00000000       0.00000000       0.00000000
Pd       2.75636324       5.49824593       5.42841276  T       0.00000000       0.00000000       0.00000000
Pd       9.62821788       6.87256141       7.41967749  T       0.00000000       0.00000000       0.00000000
Pd       4.13167085       9.62807137       7.41172215  T       0.00000000       0.00000000       0.00000000
Pd       2.74205941       8.24689989       9.40456332  T       0.00000000       0.00000000       0.00000000
Pd      -0.01075488       8.24737049       9.40981694  T       0.00000000       0.00000000       0.00000000
Pd       8.26512036       5.50062657       9.41837730  T       0.00000000       0.00000000       0.00000000
Pd       5.51785455       5.50188884       9.41469204  T       0.00000000       0.00000000       0.00000000
Pd       2.76913211       5.51967680       9.40163524  T       0.00000000       0.00000000       0.00000000
Pd       0.02056288       5.52094643       9.41140741  T       0.00000000       0.00000000       0.00000000
Pd       8.27953875       2.74533966       9.41999741  T       0.00000000       0.00000000       0.00000000
Pd       1.37604944       9.62559917       7.40705553  T       0.00000000       0.00000000       0.00000000
Pd       5.53214480       2.74997456       9.41232274  T       0.00000000       0.00000000       0.00000000
Pd       0.01295795       2.74090232       9.51607589  T       0.00000000       0.00000000       0.00000000
Pd       8.26556328      -0.00577714       9.41631549  T       0.00000000       0.00000000       0.00000000
Pd       5.51979750      -0.00278382       9.41340702  T       0.00000000       0.00000000       0.00000000
Pd       2.77052420      -0.03246729       9.40170772  T       0.00000000       0.00000000       0.00000000
Pd       0.01970415      -0.03305878       9.41111915  T       0.00000000       0.00000000       0.00000000
Pd       9.62791557       9.62581279       7.41850848  T       0.00000000       0.00000000       0.00000000
Pd       6.88007810       9.62626731       7.41795048  T       0.00000000       0.00000000       0.00000000
Pd       2.80410723       2.74176048       9.49145969  T       0.00000000       0.00000000       0.00000000
Pd       0.00000691       5.49577027       5.42942663  T       0.00000000       0.00000000       0.00000000
Pd       8.26540004       2.75082020       5.43718111  T       0.00000000       0.00000000       0.00000000
Pd       5.50652979       2.75065747       5.43723910  T       0.00000000       0.00000000       0.00000000
Pd       1.37558630       1.37558630       3.44537281  F       0.00000000       0.00000000       0.00000000
Pd       8.25351783       8.25351783       1.50000000  F       0.00000000       0.00000000       0.00000000
Pd       5.50234522       8.25351783       1.50000000  F       0.00000000       0.00000000       0.00000000
Pd       2.75117261       8.25351783       1.50000000  F       0.00000000       0.00000000       0.00000000
Pd       0.00000000       8.25351783       1.50000000  F       0.00000000       0.00000000       0.00000000
Pd       8.25351783       5.50234522       1.50000000  F       0.00000000       0.00000000       0.00000000
Pd       5.50234522       5.50234522       1.50000000  F       0.00000000       0.00000000       0.00000000
Pd       4.12675891       1.37558630       3.44537281  F       0.00000000       0.00000000       0.00000000
Pd       2.75117261       5.50234522       1.50000000  F       0.00000000       0.00000000       0.00000000
Pd       8.25351783       2.75117261       1.50000000  F       0.00000000       0.00000000       0.00000000
Pd       5.50234522       2.75117261       1.50000000  F       0.00000000       0.00000000       0.00000000
Pd       2.75117261       2.75117261       1.50000000  F       0.00000000       0.00000000       0.00000000
Pd       0.00000000       2.75117261       1.50000000  F       0.00000000       0.00000000       0.00000000
Pd       8.25351783       0.00000000       1.50000000  F       0.00000000       0.00000000       0.00000000
Pd       5.50234522       0.00000000       1.50000000  F       0.00000000       0.00000000       0.00000000
Pd       2.75117261       0.00000000       1.50000000  F       0.00000000       0.00000000       0.00000000
Pd       0.00000000       5.50234522       1.50000000  F       0.00000000       0.00000000       0.00000000
Pd       6.87793152       1.37558630       3.44537281  F       0.00000000       0.00000000       0.00000000
Pd       9.62910413       1.37558630       3.44537281  F       0.00000000       0.00000000       0.00000000
Pd       1.37558630       4.12675891       3.44537281  F       0.00000000       0.00000000       0.00000000
Pd       2.74997445       2.74900684       5.43191669  T       0.00000000       0.00000000       0.00000000
Pd       0.00477740       2.75010477       5.43462120  T       0.00000000       0.00000000       0.00000000
Pd       8.25637653       0.00004358       5.42932432  T       0.00000000       0.00000000       0.00000000
Pd       5.51083494      -0.00116018       5.42765995  T       0.00000000       0.00000000       0.00000000
Pd       2.75684803      -0.00054551       5.42746604  T       0.00000000       0.00000000       0.00000000
Pd      -0.00042852       0.00208362       5.42854535  T       0.00000000       0.00000000       0.00000000
Pd       9.62910413       9.62910413       3.44537281  F       0.00000000       0.00000000       0.00000000
Pd       6.87793152       9.62910413       3.44537281  F       0.00000000       0.00000000       0.00000000
Pd       4.12675891       9.62910413       3.44537281  F       0.00000000       0.00000000       0.00000000
Pd       1.37558630       9.62910413       3.44537281  F       0.00000000       0.00000000       0.00000000
Pd       9.62910413       6.87793152       3.44537281  F       0.00000000       0.00000000       0.00000000
Pd       6.87793152       6.87793152       3.44537281  F       0.00000000       0.00000000       0.00000000
Pd       4.12675891       6.87793152       3.44537281  F       0.00000000       0.00000000       0.00000000
Pd       1.37558630       6.87793152       3.44537281  F       0.00000000       0.00000000       0.00000000
Pd       9.62910413       4.12675891       3.44537281  F       0.00000000       0.00000000       0.00000000
Pd       6.87793152       4.12675891       3.44537281  F       0.00000000       0.00000000       0.00000000
Pd       4.12675891       4.12675891       3.44537281  F       0.00000000       0.00000000       0.00000000
Pd       5.48980985       8.25221948       9.41175075  T       0.00000000       0.00000000       0.00000000
Pd       8.24235036       8.24897761       9.41619977  T       0.00000000       0.00000000       0.00000000
C        1.42818165       2.63686952      10.89687037  T       0.00000000       0.00000000       0.00000000
O        1.44897572       2.55356809      12.08233776  T       0.00000000       0.00000000       0.00000000
