82
Lattice="11.004690437655821 0.0 0.0 0.0 11.004690437655821 0.0 0.0 0.0 27.781491233325184" Properties=species:S:1:pos:R:3:move_mask:L:1:momenta:R:3 adsorbate_info="_JSON {\"site\": {\"coordinates\": [8.253517828241865, 5.5023452188279105, 9.281491233325172], \"connectivity\": 1, \"topology\": [23], \"n_vector\": [-0.0013106811176300068, -0.0008737874117551028, 0.9999987593045138], \"h_vector\": [1.0, 0.0, 0.0], \"site_formula\": {\"Pd\": 1}}, \"smiles\": \"Cl[C]=O\", \"mdf\": 2.4187001947865783, \"adsorbate_formula\": \"CO\"}" mace_E=-405.3789440635587 converged=T n_steps=200 d_min=1.9760953161852886 site_type=unknown dE_rel_meV=0 original_idx=88 rank=6 E_MACE=-405.7169309432813 pbc="T T T"
Pd       0.00000000       0.00000000       1.50000000  F       0.00000000       0.00000000       0.00000000
Pd       4.16040689       6.86046766       7.46687632  T       0.00000000       0.00000000       0.00000000
Pd       1.39757519       6.87932949       7.42075011  T       0.00000000       0.00000000       0.00000000
Pd       9.64034638       4.12759832       7.40823105  T       0.00000000       0.00000000       0.00000000
Pd       6.88327452       4.13582057       7.42808500  T       0.00000000       0.00000000       0.00000000
Pd       4.14350989       4.13701019       7.44120619  T       0.00000000       0.00000000       0.00000000
Pd       1.39127217       4.12703986       7.41624899  T       0.00000000       0.00000000       0.00000000
Pd       9.63223597       1.37633725       7.41486398  T       0.00000000       0.00000000       0.00000000
Pd       6.87944736       6.87919064       7.43903146  T       0.00000000       0.00000000       0.00000000
Pd       6.87854069       1.38863156       7.41799228  T       0.00000000       0.00000000       0.00000000
Pd       1.37940139       1.37584724       7.41714048  T       0.00000000       0.00000000       0.00000000
Pd       8.25625551       8.25734683       5.42746362  T       0.00000000       0.00000000       0.00000000
Pd       5.50356705       8.24895740       5.44028807  T       0.00000000       0.00000000       0.00000000
Pd       2.75910351       8.25145082       5.43481994  T       0.00000000       0.00000000       0.00000000
Pd       0.00703959       8.25357692       5.43168341  T       0.00000000       0.00000000       0.00000000
Pd       8.25458273       5.50631509       5.43454362  T       0.00000000       0.00000000       0.00000000
Pd       5.50803373       5.50593352       5.43626574  T       0.00000000       0.00000000       0.00000000
Pd       4.13060907       1.38824611       7.42235532  T       0.00000000       0.00000000       0.00000000
Pd       2.76748061       5.50520166       5.43909977  T       0.00000000       0.00000000       0.00000000
Pd       9.63998665       6.88459424       7.41033194  T       0.00000000       0.00000000       0.00000000
Pd       4.12879322       9.62719252       7.42271905  T       0.00000000       0.00000000       0.00000000
Pd       2.75713099       8.25735128       9.42154600  T       0.00000000       0.00000000       0.00000000
Pd       0.00756770       8.25467544       9.40991110  T       0.00000000       0.00000000       0.00000000
Pd       8.30710777       5.50973622       9.39539011  T       0.00000000       0.00000000       0.00000000
Pd       5.51303412       5.52970044       9.53740221  T       0.00000000       0.00000000       0.00000000
Pd       2.73236980       5.49691815       9.42454906  T       0.00000000       0.00000000       0.00000000
Pd       0.01482593       5.50379911       9.40916125  T       0.00000000       0.00000000       0.00000000
Pd       8.27152642       2.75268851       9.40752953  T       0.00000000       0.00000000       0.00000000
Pd       1.37848557       9.62950512       7.41846179  T       0.00000000       0.00000000       0.00000000
Pd       5.51502010       2.74846764       9.43493080  T       0.00000000       0.00000000       0.00000000
Pd       0.00757671       2.75113224       9.40847891  T       0.00000000       0.00000000       0.00000000
Pd       8.25459165       0.00739315       9.40925669  T       0.00000000       0.00000000       0.00000000
Pd       5.50163032       0.02395260       9.41465874  T       0.00000000       0.00000000       0.00000000
Pd       2.74969350       0.00185704       9.41146886  T       0.00000000       0.00000000       0.00000000
Pd      -0.00060918       0.00116375       9.41045643  T       0.00000000       0.00000000       0.00000000
Pd       9.63224839       9.63281746       7.41544814  T       0.00000000       0.00000000       0.00000000
Pd       6.88018404       9.63567837       7.41706598  T       0.00000000       0.00000000       0.00000000
Pd       2.75104752       2.74855394       9.41738040  T       0.00000000       0.00000000       0.00000000
Pd       0.01074312       5.50422113       5.43088164  T       0.00000000       0.00000000       0.00000000
Pd       8.25669232       2.75217478       5.42588069  T       0.00000000       0.00000000       0.00000000
Pd       5.50394383       2.75976131       5.43397303  T       0.00000000       0.00000000       0.00000000
Pd       1.37558630       1.37558630       3.44537281  F       0.00000000       0.00000000       0.00000000
Pd       8.25351783       8.25351783       1.50000000  F       0.00000000       0.00000000       0.00000000
Pd       5.50234522       8.25351783       1.50000000  F       0.00000000       0.00000000       0.00000000
Pd       2.75117261       8.25351783       1.50000000  F       0.00000000       0.00000000       0.00000000
Pd       0.00000000       8.25351783       1.50000000  F       0.00000000       0.00000000       0.00000000
Pd       8.25351783       5.50234522       1.50000000  F       0.00000000       0.00000000       0.00000000
Pd       5.50234522       5.50234522       1.50000000  F       0.00000000       0.00000000       0.00000000
Pd       4.12675891       1.37558630       3.44537281  F       0.00000000       0.00000000       0.00000000
Pd       2.75117261       5.50234522       1.50000000  F       0.00000000       0.00000000       0.00000000
Pd       8.25351783       2.75117261       1.50000000  F       0.00000000       0.00000000       0.00000000
Pd       5.50234522       2.75117261       1.50000000  F       0.00000000       0.00000000       0.00000000
Pd       2.75117261       2.75117261       1.50000000  F       0.00000000       0.00000000       0.00000000
Pd       0.00000000       2.75117261       1.50000000  F       0.00000000       0.00000000       0.00000000
Pd       8.25351783       0.00000000       1.50000000  F       0.00000000       0.00000000       0.00000000
Pd       5.50234522       0.00000000       1.50000000  F       0.00000000       0.00000000       0.00000000
Pd       2.75117261       0.00000000       1.50000000  F       0.00000000       0.00000000       0.00000000
Pd       0.00000000       5.50234522       1.50000000  F       0.00000000       0.00000000       0.00000000
Pd       6.87793152       1.37558630       3.44537281  F       0.00000000       0.00000000       0.00000000
Pd       9.62910413       1.37558630       3.44537281  F       0.00000000       0.00000000       0.00000000
Pd       1.37558630       4.12675891       3.44537281  F       0.00000000       0.00000000       0.00000000
Pd       2.75528952       2.75181093       5.42884766  T       0.00000000       0.00000000       0.00000000
Pd       0.00519549       2.75180728       5.42990479  T       0.00000000       0.00000000       0.00000000
Pd       8.25224118       0.00228845       5.43043076  T       0.00000000       0.00000000       0.00000000
Pd       5.50102521       0.00243517       5.43391356  T       0.00000000       0.00000000       0.00000000
Pd       2.75370908      -0.00076703       5.43374246  T       0.00000000       0.00000000       0.00000000
Pd       0.00132917       0.00039221       5.43056728  T       0.00000000       0.00000000       0.00000000
Pd       9.62910413       9.62910413       3.44537281  F       0.00000000       0.00000000       0.00000000
Pd       6.87793152       9.62910413       3.44537281  F       0.00000000       0.00000000       0.00000000
Pd       4.12675891       9.62910413       3.44537281  F       0.00000000       0.00000000       0.00000000
Pd       1.37558630       9.62910413       3.44537281  F       0.00000000       0.00000000       0.00000000
Pd       9.62910413       6.87793152       3.44537281  F       0.00000000       0.00000000       0.00000000
Pd       6.87793152       6.87793152       3.44537281  F       0.00000000       0.00000000       0.00000000
Pd       4.12675891       6.87793152       3.44537281  F       0.00000000       0.00000000       0.00000000
Pd       1.37558630       6.87793152       3.44537281  F       0.00000000       0.00000000       0.00000000
Pd       9.62910413       4.12675891       3.44537281  F       0.00000000       0.00000000       0.00000000
Pd       6.87793152       4.12675891       3.44537281  F       0.00000000       0.00000000       0.00000000
Pd       4.12675891       4.12675891       3.44537281  F       0.00000000       0.00000000       0.00000000
Pd       5.51712672       8.30309653       9.42296952  T       0.00000000       0.00000000       0.00000000
Pd       8.26614061       8.26698055       9.41167028  T       0.00000000       0.00000000       0.00000000
C        5.92513948       5.02225294      11.27032427  T       0.00000000       0.00000000       0.00000000
O        6.24319357       4.80275032      12.37282335  T       0.00000000       0.00000000       0.00000000
