82
Lattice="11.004690437655821 0.0 0.0 0.0 11.004690437655821 0.0 0.0 0.0 27.781491233325184" Properties=species:S:1:pos:R:3:move_mask:L:1:momenta:R:3 adsorbate_info="_JSON {\"site\": {\"coordinates\": [4.126758914120933, 8.253517828241865, 9.281491233325172], \"connectivity\": 2, \"topology\": [21, 78], \"n_vector\": [0.0057833498446586955, 0.005129123796422449, 0.9999701220304811], \"h_vector\": [1.0, 0.0, 0.0], \"site_formula\": {\"Pd\": 2}}, \"smiles\": \"Cl[C]=O\", \"mdf\": 2.3413533706980587, \"adsorbate_formula\": \"CO\"}" mace_E=-405.3850533199535 converged=T n_steps=22 d_min=1.9763201058056303 site_type=unknown dE_rel_meV=0 original_idx=47 rank=5 E_MACE=-405.71706829114873 pbc="T T T"
Pd       0.00000000       0.00000000       1.50000000  F       0.00000000       0.00000000       0.00000000
Pd       4.11931325       6.88713541       7.44125972  T       0.00000000       0.00000000       0.00000000
Pd       1.37285486       6.88445633       7.43417196  T       0.00000000       0.00000000       0.00000000
Pd       9.62801704       4.12654683       7.40978655  T       0.00000000       0.00000000       0.00000000
Pd       6.87662208       4.12684600       7.41138478  T       0.00000000       0.00000000       0.00000000
Pd       4.12556574       4.13853901       7.41533179  T       0.00000000       0.00000000       0.00000000
Pd       1.37599915       4.13722982       7.41199802  T       0.00000000       0.00000000       0.00000000
Pd       9.62818665       1.37525573       7.41025701  T       0.00000000       0.00000000       0.00000000
Pd       6.87035331       6.87861936       7.41272528  T       0.00000000       0.00000000       0.00000000
Pd       6.87781639       1.37581008       7.41184042  T       0.00000000       0.00000000       0.00000000
Pd       1.37499167       1.37737781       7.40903914  T       0.00000000       0.00000000       0.00000000
Pd       8.24844451       8.25472774       5.42786513  T       0.00000000       0.00000000       0.00000000
Pd       5.48939439       8.25597086       5.43517107  T       0.00000000       0.00000000       0.00000000
Pd       2.74795619       8.25531027       5.44045367  T       0.00000000       0.00000000       0.00000000
Pd       0.00405941       8.25518466       5.43119605  T       0.00000000       0.00000000       0.00000000
Pd       8.25139860       5.50377229       5.42627812  T       0.00000000       0.00000000       0.00000000
Pd       5.50049577       5.50359609       5.42421266  T       0.00000000       0.00000000       0.00000000
Pd       4.12691770       1.37377089       7.41287574  T       0.00000000       0.00000000       0.00000000
Pd       2.75073090       5.51237852       5.43154072  T       0.00000000       0.00000000       0.00000000
Pd       9.62878089       6.88006031       7.41161080  T       0.00000000       0.00000000       0.00000000
Pd       4.10511086       9.61726537       7.46051733  T       0.00000000       0.00000000       0.00000000
Pd       2.76101276       8.28735191       9.50672950  T       0.00000000       0.00000000       0.00000000
Pd      -0.03367926       8.25348657       9.42771903  T       0.00000000       0.00000000       0.00000000
Pd       8.25205475       5.50151822       9.40091799  T       0.00000000       0.00000000       0.00000000
Pd       5.50994802       5.49857502       9.41276206  T       0.00000000       0.00000000       0.00000000
Pd       2.74574728       5.49242852       9.43323915  T       0.00000000       0.00000000       0.00000000
Pd      -0.01393177       5.49432815       9.40762306  T       0.00000000       0.00000000       0.00000000
Pd       8.25386875       2.75106275       9.40486741  T       0.00000000       0.00000000       0.00000000
Pd       1.37779047       9.62885349       7.44248740  T       0.00000000       0.00000000       0.00000000
Pd       5.50212110       2.75266350       9.40156285  T       0.00000000       0.00000000       0.00000000
Pd       0.00046553       2.75241247       9.39955748  T       0.00000000       0.00000000       0.00000000
Pd       8.25244546      -0.00061631       9.40223741  T       0.00000000       0.00000000       0.00000000
Pd       5.50341279       0.00723981       9.41558283  T       0.00000000       0.00000000       0.00000000
Pd       2.74409613       0.05712953       9.42353828  T       0.00000000       0.00000000       0.00000000
Pd      -0.00698456       0.01119791       9.41108150  T       0.00000000       0.00000000       0.00000000
Pd       9.63093579       9.62919505       7.41403984  T       0.00000000       0.00000000       0.00000000
Pd       6.86554604       9.63065448       7.41604154  T       0.00000000       0.00000000       0.00000000
Pd       2.75114748       2.77320237       9.40050769  T       0.00000000       0.00000000       0.00000000
Pd      -0.00169288       5.50342099       5.42290640  T       0.00000000       0.00000000       0.00000000
Pd       8.25336327       2.75098826       5.42475116  T       0.00000000       0.00000000       0.00000000
Pd       5.50105490       2.75128876       5.42741401  T       0.00000000       0.00000000       0.00000000
Pd       1.37558630       1.37558630       3.44537281  F       0.00000000       0.00000000       0.00000000
Pd       8.25351783       8.25351783       1.50000000  F       0.00000000       0.00000000       0.00000000
Pd       5.50234522       8.25351783       1.50000000  F       0.00000000       0.00000000       0.00000000
Pd       2.75117261       8.25351783       1.50000000  F       0.00000000       0.00000000       0.00000000
Pd       0.00000000       8.25351783       1.50000000  F       0.00000000       0.00000000       0.00000000
Pd       8.25351783       5.50234522       1.50000000  F       0.00000000       0.00000000       0.00000000
Pd       5.50234522       5.50234522       1.50000000  F       0.00000000       0.00000000       0.00000000
Pd       4.12675891       1.37558630       3.44537281  F       0.00000000       0.00000000       0.00000000
Pd       2.75117261       5.50234522       1.50000000  F       0.00000000       0.00000000       0.00000000
Pd       8.25351783       2.75117261       1.50000000  F       0.00000000       0.00000000       0.00000000
Pd       5.50234522       2.75117261       1.50000000  F       0.00000000       0.00000000       0.00000000
Pd       2.75117261       2.75117261       1.50000000  F       0.00000000       0.00000000       0.00000000
Pd       0.00000000       2.75117261       1.50000000  F       0.00000000       0.00000000       0.00000000
Pd       8.25351783       0.00000000       1.50000000  F       0.00000000       0.00000000       0.00000000
Pd       5.50234522       0.00000000       1.50000000  F       0.00000000       0.00000000       0.00000000
Pd       2.75117261       0.00000000       1.50000000  F       0.00000000       0.00000000       0.00000000
Pd       0.00000000       5.50234522       1.50000000  F       0.00000000       0.00000000       0.00000000
Pd       6.87793152       1.37558630       3.44537281  F       0.00000000       0.00000000       0.00000000
Pd       9.62910413       1.37558630       3.44537281  F       0.00000000       0.00000000       0.00000000
Pd       1.37558630       4.12675891       3.44537281  F       0.00000000       0.00000000       0.00000000
Pd       2.75243167       2.75364489       5.42699438  T       0.00000000       0.00000000       0.00000000
Pd       0.00124665       2.75202740       5.42545230  T       0.00000000       0.00000000       0.00000000
Pd       8.25079334      -0.00205983       5.42770652  T       0.00000000       0.00000000       0.00000000
Pd       5.49882127      -0.00159040       5.42758773  T       0.00000000       0.00000000       0.00000000
Pd       2.75159273      -0.00756737       5.43369535  T       0.00000000       0.00000000       0.00000000
Pd      -0.00163003       0.00034036       5.42298207  T       0.00000000       0.00000000       0.00000000
Pd       9.62910413       9.62910413       3.44537281  F       0.00000000       0.00000000       0.00000000
Pd       6.87793152       9.62910413       3.44537281  F       0.00000000       0.00000000       0.00000000
Pd       4.12675891       9.62910413       3.44537281  F       0.00000000       0.00000000       0.00000000
Pd       1.37558630       9.62910413       3.44537281  F       0.00000000       0.00000000       0.00000000
Pd       9.62910413       6.87793152       3.44537281  F       0.00000000       0.00000000       0.00000000
Pd       6.87793152       6.87793152       3.44537281  F       0.00000000       0.00000000       0.00000000
Pd       4.12675891       6.87793152       3.44537281  F       0.00000000       0.00000000       0.00000000
Pd       1.37558630       6.87793152       3.44537281  F       0.00000000       0.00000000       0.00000000
Pd       9.62910413       4.12675891       3.44537281  F       0.00000000       0.00000000       0.00000000
Pd       6.87793152       4.12675891       3.44537281  F       0.00000000       0.00000000       0.00000000
Pd       4.12675891       4.12675891       3.44537281  F       0.00000000       0.00000000       0.00000000
Pd       5.53741930       8.25114818       9.42619933  T       0.00000000       0.00000000       0.00000000
Pd       8.25369257       8.25408114       9.40292352  T       0.00000000       0.00000000       0.00000000
C        2.37306449       7.80194341      11.23713534  T       0.00000000       0.00000000       0.00000000
O        2.16845544       7.57239193      12.36341208  T       0.00000000       0.00000000       0.00000000
