82
Lattice="11.004690437655821 0.0 0.0 0.0 11.004690437655821 0.0 0.0 0.0 27.781491233325184" Properties=species:S:1:pos:R:3:move_mask:L:1:momenta:R:3 adsorbate_info="_JSON {\"site\": {\"coordinates\": [9.170575364713184, 10.087632901184502, 9.281491233325172], \"connectivity\": 3, \"topology\": [31, 34, 79], \"n_vector\": [0.06960746298100401, -0.05373048574355245, 0.9961264156717812], \"h_vector\": [-1.0, 0.0, 0.0], \"site_formula\": {\"Pd\": 3}}, \"smiles\": \"Cl[C]=O\", \"mdf\": 2.691071269532648, \"adsorbate_formula\": \"CO\"}" mace_E=-405.5313195426056 converged=F n_steps=200 d_min=4.238985729136165 site_type=atop dE_rel_meV=0 original_idx=99 rank=111 E_MACE=-404.02672854684016 pbc="T T T"
Pd       0.00000000       0.00000000       1.50000000  F       0.00000000       0.00000000       0.00000000
Pd       4.11847887       6.86783676       7.39937742  T       0.00000000       0.00000000       0.00000000
Pd       1.37002792       6.89108706       7.40276037  T       0.00000000       0.00000000       0.00000000
Pd       9.63731336       4.15958137       7.41354863  T       0.00000000       0.00000000       0.00000000
Pd       6.88625448       4.12552346       7.41076874  T       0.00000000       0.00000000       0.00000000
Pd       4.13649347       4.10161402       7.41792233  T       0.00000000       0.00000000       0.00000000
Pd       1.38538816       4.13500863       7.40501714  T       0.00000000       0.00000000       0.00000000
Pd       9.66309191       1.40545473       7.42048375  T       0.00000000       0.00000000       0.00000000
Pd       6.87616936       6.88679979       7.39928065  T       0.00000000       0.00000000       0.00000000
Pd       6.91833773       1.37100968       7.43186601  T       0.00000000       0.00000000       0.00000000
Pd       1.42489497       1.38688577       7.42816735  T       0.00000000       0.00000000       0.00000000
Pd       8.25581215       8.26695128       5.41417153  T       0.00000000       0.00000000       0.00000000
Pd       5.49588841       8.25124772       5.41761416  T       0.00000000       0.00000000       0.00000000
Pd       2.74975901       8.25758328       5.42431069  T       0.00000000       0.00000000       0.00000000
Pd       0.00458150       8.26781680       5.42225226  T       0.00000000       0.00000000       0.00000000
Pd       8.25304842       5.51102732       5.42609116  T       0.00000000       0.00000000       0.00000000
Pd       5.49978399       5.48980083       5.42492231  T       0.00000000       0.00000000       0.00000000
Pd       4.18517670       1.34675418       7.45933704  T       0.00000000       0.00000000       0.00000000
Pd       2.75170275       5.49813303       5.42739785  T       0.00000000       0.00000000       0.00000000
Pd       9.61783545       6.91821711       7.42044795  T       0.00000000       0.00000000       0.00000000
Pd       4.15938107       9.62698321       7.42881816  T       0.00000000       0.00000000       0.00000000
Pd       2.73241375       8.25045046       9.40342819  T       0.00000000       0.00000000       0.00000000
Pd       0.00072839       8.28279391       9.38926066  T       0.00000000       0.00000000       0.00000000
Pd       8.25384153       5.55907760       9.39799246  T       0.00000000       0.00000000       0.00000000
Pd       5.50093048       5.46132313       9.39553504  T       0.00000000       0.00000000       0.00000000
Pd       2.74916495       5.50435137       9.38769177  T       0.00000000       0.00000000       0.00000000
Pd       0.00700826       5.52870228       9.39378745  T       0.00000000       0.00000000       0.00000000
Pd       8.27362557       2.82723892       9.41231894  T       0.00000000       0.00000000       0.00000000
Pd       1.40770096       9.64708877       7.41449577  T       0.00000000       0.00000000       0.00000000
Pd       5.53025561       2.72539666       9.42297438  T       0.00000000       0.00000000       0.00000000
Pd       0.02347714       2.78160690       9.40557914  T       0.00000000       0.00000000       0.00000000
Pd       8.39881768       0.09605300       9.44487847  T       0.00000000       0.00000000       0.00000000
Pd       5.63923093      -0.08509287       9.54403570  T       0.00000000       0.00000000       0.00000000
Pd       2.85213120      -0.00602342       9.44082911  T       0.00000000       0.00000000       0.00000000
Pd       0.10997602       0.02366620       9.41060555  T       0.00000000       0.00000000       0.00000000
Pd       9.65175724       9.66506043       7.40005669  T       0.00000000       0.00000000       0.00000000
Pd       6.89282027       9.63856338       7.37829821  T       0.00000000       0.00000000       0.00000000
Pd       2.76909782       2.76008512       9.41883731  T       0.00000000       0.00000000       0.00000000
Pd       0.00022394       5.51035523       5.42464836  T       0.00000000       0.00000000       0.00000000
Pd       8.26332125       2.76156370       5.43208689  T       0.00000000       0.00000000       0.00000000
Pd       5.51182518       2.74116231       5.43534270  T       0.00000000       0.00000000       0.00000000
Pd       1.37558630       1.37558630       3.44537281  F       0.00000000       0.00000000       0.00000000
Pd       8.25351783       8.25351783       1.50000000  F       0.00000000       0.00000000       0.00000000
Pd       5.50234522       8.25351783       1.50000000  F       0.00000000       0.00000000       0.00000000
Pd       2.75117261       8.25351783       1.50000000  F       0.00000000       0.00000000       0.00000000
Pd       0.00000000       8.25351783       1.50000000  F       0.00000000       0.00000000       0.00000000
Pd       8.25351783       5.50234522       1.50000000  F       0.00000000       0.00000000       0.00000000
Pd       5.50234522       5.50234522       1.50000000  F       0.00000000       0.00000000       0.00000000
Pd       4.12675891       1.37558630       3.44537281  F       0.00000000       0.00000000       0.00000000
Pd       2.75117261       5.50234522       1.50000000  F       0.00000000       0.00000000       0.00000000
Pd       8.25351783       2.75117261       1.50000000  F       0.00000000       0.00000000       0.00000000
Pd       5.50234522       2.75117261       1.50000000  F       0.00000000       0.00000000       0.00000000
Pd       2.75117261       2.75117261       1.50000000  F       0.00000000       0.00000000       0.00000000
Pd       0.00000000       2.75117261       1.50000000  F       0.00000000       0.00000000       0.00000000
Pd       8.25351783       0.00000000       1.50000000  F       0.00000000       0.00000000       0.00000000
Pd       5.50234522       0.00000000       1.50000000  F       0.00000000       0.00000000       0.00000000
Pd       2.75117261       0.00000000       1.50000000  F       0.00000000       0.00000000       0.00000000
Pd       0.00000000       5.50234522       1.50000000  F       0.00000000       0.00000000       0.00000000
Pd       6.87793152       1.37558630       3.44537281  F       0.00000000       0.00000000       0.00000000
Pd       9.62910413       1.37558630       3.44537281  F       0.00000000       0.00000000       0.00000000
Pd       1.37558630       4.12675891       3.44537281  F       0.00000000       0.00000000       0.00000000
Pd       2.76413464       2.74550122       5.43340406  T       0.00000000       0.00000000       0.00000000
Pd       0.01494787       2.76290878       5.42837798  T       0.00000000       0.00000000       0.00000000
Pd       8.27067158       0.01992761       5.42627773  T       0.00000000       0.00000000       0.00000000
Pd       5.51545099       0.00354409       5.42466663  T       0.00000000       0.00000000       0.00000000
Pd       2.77238918       0.00274904       5.43814292  T       0.00000000       0.00000000       0.00000000
Pd       0.02135795       0.01717584       5.43371049  T       0.00000000       0.00000000       0.00000000
Pd       9.62910413       9.62910413       3.44537281  F       0.00000000       0.00000000       0.00000000
Pd       6.87793152       9.62910413       3.44537281  F       0.00000000       0.00000000       0.00000000
Pd       4.12675891       9.62910413       3.44537281  F       0.00000000       0.00000000       0.00000000
Pd       1.37558630       9.62910413       3.44537281  F       0.00000000       0.00000000       0.00000000
Pd       9.62910413       6.87793152       3.44537281  F       0.00000000       0.00000000       0.00000000
Pd       6.87793152       6.87793152       3.44537281  F       0.00000000       0.00000000       0.00000000
Pd       4.12675891       6.87793152       3.44537281  F       0.00000000       0.00000000       0.00000000
Pd       1.37558630       6.87793152       3.44537281  F       0.00000000       0.00000000       0.00000000
Pd       9.62910413       4.12675891       3.44537281  F       0.00000000       0.00000000       0.00000000
Pd       6.87793152       4.12675891       3.44537281  F       0.00000000       0.00000000       0.00000000
Pd       4.12675891       4.12675891       3.44537281  F       0.00000000       0.00000000       0.00000000
Pd       5.45729215       8.17532327       9.39480447  T       0.00000000       0.00000000       0.00000000
Pd       8.21537279       8.33762604       9.43124464  T       0.00000000       0.00000000       0.00000000
C        7.15819558       9.99336612      10.55713768  T       0.00000000       0.00000000       0.00000000
O        7.19042974       9.51594939      11.67728908  T       0.00000000       0.00000000       0.00000000
