82
Lattice="11.004690437655821 0.0 0.0 0.0 11.004690437655821 0.0 0.0 0.0 27.781491233325184" Properties=species:S:1:pos:R:3:move_mask:L:1:momenta:R:3 adsorbate_info="_JSON {\"site\": {\"coordinates\": [3.6682301458852735, 4.585287682356594, 9.281491233325172], \"connectivity\": 3, \"topology\": [24, 25, 37], \"n_vector\": [0.06665281966056127, -0.06798422541861865, 0.9954574560098122], \"h_vector\": [0.0, 1.0, 0.0], \"site_formula\": {\"Pd\": 3}}, \"smiles\": \"Cl[C]=O\", \"mdf\": 2.3271086551640643, \"adsorbate_formula\": \"CO\"}" mace_E=-405.71289233710127 converged=F n_steps=42 d_min=1.851285769360531 site_type=bridge dE_rel_meV=0 original_idx=39 rank=107 E_MACE=-405.3813363244157 pbc="T T T"
Pd       0.00000000       0.00000000       1.50000000  F       0.00000000       0.00000000       0.00000000
Pd       4.13138610       6.87135855       7.40978671  T       0.00000000       0.00000000       0.00000000
Pd       1.37629300       6.87274789       7.41604216  T       0.00000000       0.00000000       0.00000000
Pd       9.62319529       4.12702323       7.42348855  T       0.00000000       0.00000000       0.00000000
Pd       6.86259643       4.11513851       7.44484465  T       0.00000000       0.00000000       0.00000000
Pd       4.12225536       4.12111221       7.43592102  T       0.00000000       0.00000000       0.00000000
Pd       1.38133175       4.11582507       7.43841945  T       0.00000000       0.00000000       0.00000000
Pd       9.62309786       1.37461489       7.42118717  T       0.00000000       0.00000000       0.00000000
Pd       6.88493067       6.87076839       7.41747127  T       0.00000000       0.00000000       0.00000000
Pd       6.86557034       1.38275377       7.44001104  T       0.00000000       0.00000000       0.00000000
Pd       1.37896651       1.38164387       7.43291833  T       0.00000000       0.00000000       0.00000000
Pd       8.25527922       8.25278882       5.43175646  T       0.00000000       0.00000000       0.00000000
Pd       5.50606916       8.25173243       5.43088471  T       0.00000000       0.00000000       0.00000000
Pd       2.75297701       8.25270264       5.42931732  T       0.00000000       0.00000000       0.00000000
Pd       0.00337103       8.25311343       5.43018351  T       0.00000000       0.00000000       0.00000000
Pd       8.25391471       5.50056334       5.42998714  T       0.00000000       0.00000000       0.00000000
Pd       5.50631687       5.49465366       5.43286162  T       0.00000000       0.00000000       0.00000000
Pd       4.12256093       1.37657945       7.43200377  T       0.00000000       0.00000000       0.00000000
Pd       2.75041324       5.49732762       5.43131727  T       0.00000000       0.00000000       0.00000000
Pd       9.63294970       6.87770630       7.41820552  T       0.00000000       0.00000000       0.00000000
Pd       4.13082429       9.62840921       7.40971323  T       0.00000000       0.00000000       0.00000000
Pd       2.75227258       8.25044080       9.40613573  T       0.00000000       0.00000000       0.00000000
Pd       0.00318744       8.25202085       9.41143272  T       0.00000000       0.00000000       0.00000000
Pd       8.26131922       5.50624950       9.41898177  T       0.00000000       0.00000000       0.00000000
Pd       5.50822418       5.52466631       9.41497372  T       0.00000000       0.00000000       0.00000000
Pd       2.75837425       5.52228177       9.41044263  T       0.00000000       0.00000000       0.00000000
Pd       0.00805780       5.50131168       9.41321542  T       0.00000000       0.00000000       0.00000000
Pd       8.23954499       2.75048431       9.42632434  T       0.00000000       0.00000000       0.00000000
Pd       1.37654990       9.63013975       7.41601966  T       0.00000000       0.00000000       0.00000000
Pd       5.49761689       2.74220868       9.51801678  T       0.00000000       0.00000000       0.00000000
Pd      -0.01755004       2.74799169       9.41495664  T       0.00000000       0.00000000       0.00000000
Pd       8.26174499      -0.00331203       9.41631426  T       0.00000000       0.00000000       0.00000000
Pd       5.51039656      -0.03345068       9.41394406  T       0.00000000       0.00000000       0.00000000
Pd       2.75587909      -0.03026519       9.40963736  T       0.00000000       0.00000000       0.00000000
Pd       0.00564168      -0.00219744       9.41077638  T       0.00000000       0.00000000       0.00000000
Pd       9.63293772       9.62713059       7.41744726  T       0.00000000       0.00000000       0.00000000
Pd       6.88362820       9.63228909       7.41611492  T       0.00000000       0.00000000       0.00000000
Pd       2.71182590       2.74385013       9.51703634  T       0.00000000       0.00000000       0.00000000
Pd      -0.00301933       5.50260071       5.42946592  T       0.00000000       0.00000000       0.00000000
Pd       8.24332598       2.75124519       5.43849379  T       0.00000000       0.00000000       0.00000000
Pd       5.49751032       2.75034220       5.43998396  T       0.00000000       0.00000000       0.00000000
Pd       1.37558630       1.37558630       3.44537281  F       0.00000000       0.00000000       0.00000000
Pd       8.25351783       8.25351783       1.50000000  F       0.00000000       0.00000000       0.00000000
Pd       5.50234522       8.25351783       1.50000000  F       0.00000000       0.00000000       0.00000000
Pd       2.75117261       8.25351783       1.50000000  F       0.00000000       0.00000000       0.00000000
Pd       0.00000000       8.25351783       1.50000000  F       0.00000000       0.00000000       0.00000000
Pd       8.25351783       5.50234522       1.50000000  F       0.00000000       0.00000000       0.00000000
Pd       5.50234522       5.50234522       1.50000000  F       0.00000000       0.00000000       0.00000000
Pd       4.12675891       1.37558630       3.44537281  F       0.00000000       0.00000000       0.00000000
Pd       2.75117261       5.50234522       1.50000000  F       0.00000000       0.00000000       0.00000000
Pd       8.25351783       2.75117261       1.50000000  F       0.00000000       0.00000000       0.00000000
Pd       5.50234522       2.75117261       1.50000000  F       0.00000000       0.00000000       0.00000000
Pd       2.75117261       2.75117261       1.50000000  F       0.00000000       0.00000000       0.00000000
Pd       0.00000000       2.75117261       1.50000000  F       0.00000000       0.00000000       0.00000000
Pd       8.25351783       0.00000000       1.50000000  F       0.00000000       0.00000000       0.00000000
Pd       5.50234522       0.00000000       1.50000000  F       0.00000000       0.00000000       0.00000000
Pd       2.75117261       0.00000000       1.50000000  F       0.00000000       0.00000000       0.00000000
Pd       0.00000000       5.50234522       1.50000000  F       0.00000000       0.00000000       0.00000000
Pd       6.87793152       1.37558630       3.44537281  F       0.00000000       0.00000000       0.00000000
Pd       9.62910413       1.37558630       3.44537281  F       0.00000000       0.00000000       0.00000000
Pd       1.37558630       4.12675891       3.44537281  F       0.00000000       0.00000000       0.00000000
Pd       2.75042362       2.75103529       5.43794552  T       0.00000000       0.00000000       0.00000000
Pd      -0.00411364       2.75130920       5.43860545  T       0.00000000       0.00000000       0.00000000
Pd       8.25390133       0.00020751       5.42949088  T       0.00000000       0.00000000       0.00000000
Pd       5.50539466       0.00495467       5.43277112  T       0.00000000       0.00000000       0.00000000
Pd       2.75146562       0.00341093       5.43120817  T       0.00000000       0.00000000       0.00000000
Pd      -0.00216162      -0.00146697       5.42881791  T       0.00000000       0.00000000       0.00000000
Pd       9.62910413       9.62910413       3.44537281  F       0.00000000       0.00000000       0.00000000
Pd       6.87793152       9.62910413       3.44537281  F       0.00000000       0.00000000       0.00000000
Pd       4.12675891       9.62910413       3.44537281  F       0.00000000       0.00000000       0.00000000
Pd       1.37558630       9.62910413       3.44537281  F       0.00000000       0.00000000       0.00000000
Pd       9.62910413       6.87793152       3.44537281  F       0.00000000       0.00000000       0.00000000
Pd       6.87793152       6.87793152       3.44537281  F       0.00000000       0.00000000       0.00000000
Pd       4.12675891       6.87793152       3.44537281  F       0.00000000       0.00000000       0.00000000
Pd       1.37558630       6.87793152       3.44537281  F       0.00000000       0.00000000       0.00000000
Pd       9.62910413       4.12675891       3.44537281  F       0.00000000       0.00000000       0.00000000
Pd       6.87793152       4.12675891       3.44537281  F       0.00000000       0.00000000       0.00000000
Pd       4.12675891       4.12675891       3.44537281  F       0.00000000       0.00000000       0.00000000
Pd       5.50530390       8.24901323       9.40450193  T       0.00000000       0.00000000       0.00000000
Pd       8.25409322       8.25500613       9.40916113  T       0.00000000       0.00000000       0.00000000
C        4.10279048       2.51103298      10.90324071  T       0.00000000       0.00000000       0.00000000
O        4.10213329       2.32035966      12.07630063  T       0.00000000       0.00000000       0.00000000
