82
Lattice="11.004690437655821 0.0 0.0 0.0 11.004690437655821 0.0 0.0 0.0 27.781491233325184" Properties=species:S:1:pos:R:3:move_mask:L:1:momenta:R:3 adsorbate_info="_JSON {\"site\": {\"coordinates\": [8.253517828241865, 6.877931523534889, 9.281491233325172], \"connectivity\": 2, \"topology\": [23, 79], \"n_vector\": [0.0051291362463795785, 0.005347212125127967, 0.9999725492651561], \"h_vector\": [0.0, 1.0, 0.0], \"site_formula\": {\"Pd\": 2}}, \"smiles\": \"Cl[C]=O\", \"mdf\": 2.313253128534069, \"adsorbate_formula\": \"CO\"}" mace_E=-405.39291602247744 converged=T n_steps=200 d_min=1.9741600309804197 site_type=unknown dE_rel_meV=0 original_idx=89 rank=8 E_MACE=-405.71657600891723 pbc="T T T"
Pd       0.00000000       0.00000000       1.50000000  F       0.00000000       0.00000000       0.00000000
Pd       4.12456821       6.87753488       7.41830989  T       0.00000000       0.00000000       0.00000000
Pd       1.36031832       6.87196708       7.42312579  T       0.00000000       0.00000000       0.00000000
Pd       9.62395805       4.12785026       7.41974515  T       0.00000000       0.00000000       0.00000000
Pd       6.87722704       4.13128151       7.43039009  T       0.00000000       0.00000000       0.00000000
Pd       4.11997219       4.12556684       7.41347792  T       0.00000000       0.00000000       0.00000000
Pd       1.36228798       4.12847630       7.41736453  T       0.00000000       0.00000000       0.00000000
Pd       9.62783678       1.37896018       7.41055682  T       0.00000000       0.00000000       0.00000000
Pd       6.89306458       6.85676462       7.45439321  T       0.00000000       0.00000000       0.00000000
Pd       6.87821477       1.38118770       7.41573607  T       0.00000000       0.00000000       0.00000000
Pd       1.37696621       1.37339468       7.41047507  T       0.00000000       0.00000000       0.00000000
Pd       8.25063851       8.24693786       5.43480583  T       0.00000000       0.00000000       0.00000000
Pd       5.50306094       8.25005932       5.43143032  T       0.00000000       0.00000000       0.00000000
Pd       2.75138758       8.25012432       5.43176452  T       0.00000000       0.00000000       0.00000000
Pd       0.00092139       8.25294633       5.42564460  T       0.00000000       0.00000000       0.00000000
Pd       8.25050860       5.50263604       5.43194484  T       0.00000000       0.00000000       0.00000000
Pd       5.50482732       5.50361120       5.43655349  T       0.00000000       0.00000000       0.00000000
Pd       4.12765116       1.37372076       7.41215855  T       0.00000000       0.00000000       0.00000000
Pd       2.74770944       5.50319280       5.43266627  T       0.00000000       0.00000000       0.00000000
Pd       9.62288496       6.87366344       7.42810746  T       0.00000000       0.00000000       0.00000000
Pd       4.12662180       9.62793911       7.41380043  T       0.00000000       0.00000000       0.00000000
Pd       2.75004158       8.25483576       9.40745475  T       0.00000000       0.00000000       0.00000000
Pd       0.00162919       8.25900730       9.40932000  T       0.00000000       0.00000000       0.00000000
Pd       8.21432351       5.51975494       9.50255819  T       0.00000000       0.00000000       0.00000000
Pd       5.45215083       5.49439799       9.41304856  T       0.00000000       0.00000000       0.00000000
Pd       2.72289259       5.50163287       9.41199553  T       0.00000000       0.00000000       0.00000000
Pd      -0.01158258       5.49179786       9.44591191  T       0.00000000       0.00000000       0.00000000
Pd       8.25723096       2.73601978       9.42097240  T       0.00000000       0.00000000       0.00000000
Pd       1.37649398       9.62500777       7.41264487  T       0.00000000       0.00000000       0.00000000
Pd       5.49460756       2.74605970       9.40835070  T       0.00000000       0.00000000       0.00000000
Pd       0.00839568       2.73393863       9.40345837  T       0.00000000       0.00000000       0.00000000
Pd       8.25354946       0.01031761       9.40727721  T       0.00000000       0.00000000       0.00000000
Pd       5.50146064      -0.00213930       9.40613166  T       0.00000000       0.00000000       0.00000000
Pd       2.75057102       0.00027009       9.40512228  T       0.00000000       0.00000000       0.00000000
Pd       0.00155395      -0.00442311       9.40340561  T       0.00000000       0.00000000       0.00000000
Pd       9.62939146       9.62783239       7.41047986  T       0.00000000       0.00000000       0.00000000
Pd       6.87673161       9.62303253       7.41567286  T       0.00000000       0.00000000       0.00000000
Pd       2.75036508       2.74874602       9.40497652  T       0.00000000       0.00000000       0.00000000
Pd      -0.00685961       5.50282595       5.42902786  T       0.00000000       0.00000000       0.00000000
Pd       8.25098021       2.75576154       5.42980332  T       0.00000000       0.00000000       0.00000000
Pd       5.49989396       2.75028275       5.42578927  T       0.00000000       0.00000000       0.00000000
Pd       1.37558630       1.37558630       3.44537281  F       0.00000000       0.00000000       0.00000000
Pd       8.25351783       8.25351783       1.50000000  F       0.00000000       0.00000000       0.00000000
Pd       5.50234522       8.25351783       1.50000000  F       0.00000000       0.00000000       0.00000000
Pd       2.75117261       8.25351783       1.50000000  F       0.00000000       0.00000000       0.00000000
Pd       0.00000000       8.25351783       1.50000000  F       0.00000000       0.00000000       0.00000000
Pd       8.25351783       5.50234522       1.50000000  F       0.00000000       0.00000000       0.00000000
Pd       5.50234522       5.50234522       1.50000000  F       0.00000000       0.00000000       0.00000000
Pd       4.12675891       1.37558630       3.44537281  F       0.00000000       0.00000000       0.00000000
Pd       2.75117261       5.50234522       1.50000000  F       0.00000000       0.00000000       0.00000000
Pd       8.25351783       2.75117261       1.50000000  F       0.00000000       0.00000000       0.00000000
Pd       5.50234522       2.75117261       1.50000000  F       0.00000000       0.00000000       0.00000000
Pd       2.75117261       2.75117261       1.50000000  F       0.00000000       0.00000000       0.00000000
Pd       0.00000000       2.75117261       1.50000000  F       0.00000000       0.00000000       0.00000000
Pd       8.25351783       0.00000000       1.50000000  F       0.00000000       0.00000000       0.00000000
Pd       5.50234522       0.00000000       1.50000000  F       0.00000000       0.00000000       0.00000000
Pd       2.75117261       0.00000000       1.50000000  F       0.00000000       0.00000000       0.00000000
Pd       0.00000000       5.50234522       1.50000000  F       0.00000000       0.00000000       0.00000000
Pd       6.87793152       1.37558630       3.44537281  F       0.00000000       0.00000000       0.00000000
Pd       9.62910413       1.37558630       3.44537281  F       0.00000000       0.00000000       0.00000000
Pd       1.37558630       4.12675891       3.44537281  F       0.00000000       0.00000000       0.00000000
Pd       2.75029493       2.75246447       5.42916333  T       0.00000000       0.00000000       0.00000000
Pd       0.00055396       2.75016020       5.42408541  T       0.00000000       0.00000000       0.00000000
Pd       8.25207390      -0.00082542       5.43006706  T       0.00000000       0.00000000       0.00000000
Pd       5.50374636      -0.00242092       5.43029081  T       0.00000000       0.00000000       0.00000000
Pd       2.75159023      -0.00131342       5.42861209  T       0.00000000       0.00000000       0.00000000
Pd      -0.00036629      -0.00146269       5.42823615  T       0.00000000       0.00000000       0.00000000
Pd       9.62910413       9.62910413       3.44537281  F       0.00000000       0.00000000       0.00000000
Pd       6.87793152       9.62910413       3.44537281  F       0.00000000       0.00000000       0.00000000
Pd       4.12675891       9.62910413       3.44537281  F       0.00000000       0.00000000       0.00000000
Pd       1.37558630       9.62910413       3.44537281  F       0.00000000       0.00000000       0.00000000
Pd       9.62910413       6.87793152       3.44537281  F       0.00000000       0.00000000       0.00000000
Pd       6.87793152       6.87793152       3.44537281  F       0.00000000       0.00000000       0.00000000
Pd       4.12675891       6.87793152       3.44537281  F       0.00000000       0.00000000       0.00000000
Pd       1.37558630       6.87793152       3.44537281  F       0.00000000       0.00000000       0.00000000
Pd       9.62910413       4.12675891       3.44537281  F       0.00000000       0.00000000       0.00000000
Pd       6.87793152       4.12675891       3.44537281  F       0.00000000       0.00000000       0.00000000
Pd       4.12675891       4.12675891       3.44537281  F       0.00000000       0.00000000       0.00000000
Pd       5.50041770       8.25282186       9.41262585  T       0.00000000       0.00000000       0.00000000
Pd       8.25953355       8.29060247       9.41103968  T       0.00000000       0.00000000       0.00000000
C        8.89474302       5.00870617      11.15709037  T       0.00000000       0.00000000       0.00000000
O        9.14195659       4.76694329      12.26853692  T       0.00000000       0.00000000       0.00000000
