82
Lattice="11.004690437655821 0.0 0.0 0.0 11.004690437655821 0.0 0.0 0.0 27.781491233325184" Properties=species:S:1:pos:R:3:move_mask:L:1:momenta:R:3 adsorbate_info="_JSON {\"site\": {\"coordinates\": [5.50234521882791, 6.877931523534889, 9.281491233325172], \"connectivity\": 2, \"topology\": [24, 78], \"n_vector\": [0.0055652750245801874, 0.005347199654425044, 0.9999702171413689], \"h_vector\": [0.0, 1.0, 0.0], \"site_formula\": {\"Pd\": 2}}, \"smiles\": \"Cl[C]=O\", \"mdf\": 2.3132861613198763, \"adsorbate_formula\": \"CO\"}" mace_E=-405.38835539029344 converged=F n_steps=200 d_min=3.278383747716368 site_type=unknown dE_rel_meV=0 original_idx=61 rank=110 E_MACE=-404.0819256637024 pbc="T T T"
Pd       0.00000000       0.00000000       1.50000000  F       0.00000000       0.00000000       0.00000000
Pd       4.14567064       6.85524821       7.45783209  T       0.00000000       0.00000000       0.00000000
Pd       1.37929800       6.87789974       7.41506703  T       0.00000000       0.00000000       0.00000000
Pd       9.62192292       4.12693940       7.40951263  T       0.00000000       0.00000000       0.00000000
Pd       6.87388653       4.12731352       7.41972920  T       0.00000000       0.00000000       0.00000000
Pd       4.12884047       4.13083526       7.43228275  T       0.00000000       0.00000000       0.00000000
Pd       1.37390982       4.12542452       7.41011431  T       0.00000000       0.00000000       0.00000000
Pd       9.63033440       1.37332465       7.40943131  T       0.00000000       0.00000000       0.00000000
Pd       6.87191609       6.87451117       7.42822918  T       0.00000000       0.00000000       0.00000000
Pd       6.87641321       1.37982240       7.41084323  T       0.00000000       0.00000000       0.00000000
Pd       1.37664241       1.37367053       7.41119846  T       0.00000000       0.00000000       0.00000000
Pd       8.25397549       8.25379866       5.42434968  T       0.00000000       0.00000000       0.00000000
Pd       5.49957983       8.24569207       5.43520852  T       0.00000000       0.00000000       0.00000000
Pd       2.75350739       8.24985155       5.43109321  T       0.00000000       0.00000000       0.00000000
Pd       0.00149529       8.25167745       5.42977701  T       0.00000000       0.00000000       0.00000000
Pd       8.24703508       5.50300901       5.42932468  T       0.00000000       0.00000000       0.00000000
Pd       5.50028462       5.50196403       5.43273776  T       0.00000000       0.00000000       0.00000000
Pd       4.12768905       1.38170756       7.41565823  T       0.00000000       0.00000000       0.00000000
Pd       2.75725490       5.50356020       5.43573102  T       0.00000000       0.00000000       0.00000000
Pd       9.62041535       6.87671071       7.41395061  T       0.00000000       0.00000000       0.00000000
Pd       4.12573711       9.62183375       7.41521746  T       0.00000000       0.00000000       0.00000000
Pd       2.74883804       8.25306061       9.41191220  T       0.00000000       0.00000000       0.00000000
Pd      -0.00091557       8.25375711       9.40419801  T       0.00000000       0.00000000       0.00000000
Pd       8.26531784       5.49850846       9.41762085  T       0.00000000       0.00000000       0.00000000
Pd       5.47918650       5.52031271       9.51117683  T       0.00000000       0.00000000       0.00000000
Pd       2.70664758       5.49385666       9.41333158  T       0.00000000       0.00000000       0.00000000
Pd      -0.01680101       5.50205509       9.40495139  T       0.00000000       0.00000000       0.00000000
Pd       8.26319369       2.73959047       9.40079117  T       0.00000000       0.00000000       0.00000000
Pd       1.37547755       9.62824260       7.41288605  T       0.00000000       0.00000000       0.00000000
Pd       5.50689245       2.73777433       9.42504877  T       0.00000000       0.00000000       0.00000000
Pd      -0.00060127       2.74986694       9.40170510  T       0.00000000       0.00000000       0.00000000
Pd       8.25490873      -0.00171999       9.40200834  T       0.00000000       0.00000000       0.00000000
Pd       5.50226534       0.01147262       9.40565168  T       0.00000000       0.00000000       0.00000000
Pd       2.75056715      -0.00207564       9.40436971  T       0.00000000       0.00000000       0.00000000
Pd      -0.00038106       0.00026921       9.40439720  T       0.00000000       0.00000000       0.00000000
Pd       9.63002736       9.62745133       7.41114007  T       0.00000000       0.00000000       0.00000000
Pd       6.87809597       9.62830218       7.40983833  T       0.00000000       0.00000000       0.00000000
Pd       2.74270371       2.74562651       9.40730372  T       0.00000000       0.00000000       0.00000000
Pd      -0.00038949       5.50342772       5.42944670  T       0.00000000       0.00000000       0.00000000
Pd       8.25362044       2.74957633       5.42329463  T       0.00000000       0.00000000       0.00000000
Pd       5.50021802       2.75565229       5.43011630  T       0.00000000       0.00000000       0.00000000
Pd       1.37558630       1.37558630       3.44537281  F       0.00000000       0.00000000       0.00000000
Pd       8.25351783       8.25351783       1.50000000  F       0.00000000       0.00000000       0.00000000
Pd       5.50234522       8.25351783       1.50000000  F       0.00000000       0.00000000       0.00000000
Pd       2.75117261       8.25351783       1.50000000  F       0.00000000       0.00000000       0.00000000
Pd       0.00000000       8.25351783       1.50000000  F       0.00000000       0.00000000       0.00000000
Pd       8.25351783       5.50234522       1.50000000  F       0.00000000       0.00000000       0.00000000
Pd       5.50234522       5.50234522       1.50000000  F       0.00000000       0.00000000       0.00000000
Pd       4.12675891       1.37558630       3.44537281  F       0.00000000       0.00000000       0.00000000
Pd       2.75117261       5.50234522       1.50000000  F       0.00000000       0.00000000       0.00000000
Pd       8.25351783       2.75117261       1.50000000  F       0.00000000       0.00000000       0.00000000
Pd       5.50234522       2.75117261       1.50000000  F       0.00000000       0.00000000       0.00000000
Pd       2.75117261       2.75117261       1.50000000  F       0.00000000       0.00000000       0.00000000
Pd       0.00000000       2.75117261       1.50000000  F       0.00000000       0.00000000       0.00000000
Pd       8.25351783       0.00000000       1.50000000  F       0.00000000       0.00000000       0.00000000
Pd       5.50234522       0.00000000       1.50000000  F       0.00000000       0.00000000       0.00000000
Pd       2.75117261       0.00000000       1.50000000  F       0.00000000       0.00000000       0.00000000
Pd       0.00000000       5.50234522       1.50000000  F       0.00000000       0.00000000       0.00000000
Pd       6.87793152       1.37558630       3.44537281  F       0.00000000       0.00000000       0.00000000
Pd       9.62910413       1.37558630       3.44537281  F       0.00000000       0.00000000       0.00000000
Pd       1.37558630       4.12675891       3.44537281  F       0.00000000       0.00000000       0.00000000
Pd       2.75045923       2.74988848       5.42532919  T       0.00000000       0.00000000       0.00000000
Pd       0.00015263       2.75155603       5.42742262  T       0.00000000       0.00000000       0.00000000
Pd       8.25280004      -0.00099939       5.42733149  T       0.00000000       0.00000000       0.00000000
Pd       5.50077838      -0.00127895       5.42981864  T       0.00000000       0.00000000       0.00000000
Pd       2.75283546      -0.00250954       5.42991041  T       0.00000000       0.00000000       0.00000000
Pd       0.00063159      -0.00087695       5.42760622  T       0.00000000       0.00000000       0.00000000
Pd       9.62910413       9.62910413       3.44537281  F       0.00000000       0.00000000       0.00000000
Pd       6.87793152       9.62910413       3.44537281  F       0.00000000       0.00000000       0.00000000
Pd       4.12675891       9.62910413       3.44537281  F       0.00000000       0.00000000       0.00000000
Pd       1.37558630       9.62910413       3.44537281  F       0.00000000       0.00000000       0.00000000
Pd       9.62910413       6.87793152       3.44537281  F       0.00000000       0.00000000       0.00000000
Pd       6.87793152       6.87793152       3.44537281  F       0.00000000       0.00000000       0.00000000
Pd       4.12675891       6.87793152       3.44537281  F       0.00000000       0.00000000       0.00000000
Pd       1.37558630       6.87793152       3.44537281  F       0.00000000       0.00000000       0.00000000
Pd       9.62910413       4.12675891       3.44537281  F       0.00000000       0.00000000       0.00000000
Pd       6.87793152       4.12675891       3.44537281  F       0.00000000       0.00000000       0.00000000
Pd       4.12675891       4.12675891       3.44537281  F       0.00000000       0.00000000       0.00000000
Pd       5.50895770       8.29169826       9.41239989  T       0.00000000       0.00000000       0.00000000
Pd       8.25633262       8.26067419       9.40639916  T       0.00000000       0.00000000       0.00000000
C        6.06155166       4.98965599      11.18746677  T       0.00000000       0.00000000       0.00000000
O        6.34845956       4.75238230      12.29651263  T       0.00000000       0.00000000       0.00000000
