82
Lattice="11.004690437655821 0.0 0.0 0.0 11.004690437655821 0.0 0.0 0.0 27.781491233325184" Properties=species:S:1:pos:R:3:move_mask:L:1:momenta:R:3 adsorbate_info="_JSON {\"site\": {\"coordinates\": [8.253517828241865, 4.126758914120933, 9.281491233325172], \"connectivity\": 2, \"topology\": [23, 27], \"n_vector\": [0.005129123796420468, 0.005783349844657375, 0.9999701220304811], \"h_vector\": [0.0, 1.0, 0.0], \"site_formula\": {\"Pd\": 2}}, \"smiles\": \"Cl[C]=O\", \"mdf\": 2.313827129534596, \"adsorbate_formula\": \"CO\"}" mace_E=-405.38849186184484 converged=T n_steps=136 d_min=1.8526226436585842 site_type=unknown dE_rel_meV=0 original_idx=87 rank=57 E_MACE=-405.3902666530816 pbc="T T T"
Pd       0.00000000       0.00000000       1.50000000  F       0.00000000       0.00000000       0.00000000
Pd       4.12745119       6.87666173       7.41822151  T       0.00000000       0.00000000       0.00000000
Pd       1.37659235       6.87620994       7.41594744  T       0.00000000       0.00000000       0.00000000
Pd       9.62511943       4.12507625       7.43191584  T       0.00000000       0.00000000       0.00000000
Pd       6.90002815       4.10546484       7.46328190  T       0.00000000       0.00000000       0.00000000
Pd       4.13380062       4.12550956       7.42056141  T       0.00000000       0.00000000       0.00000000
Pd       1.36711481       4.12566027       7.41947193  T       0.00000000       0.00000000       0.00000000
Pd       9.62812224       1.37833602       7.42129220  T       0.00000000       0.00000000       0.00000000
Pd       6.87758661       6.87055679       7.42115720  T       0.00000000       0.00000000       0.00000000
Pd       6.88187710       1.38034283       7.43696343  T       0.00000000       0.00000000       0.00000000
Pd       1.36887039       1.37687568       7.41546650  T       0.00000000       0.00000000       0.00000000
Pd       8.25152261       8.25299932       5.43215253  T       0.00000000       0.00000000       0.00000000
Pd       5.50408231       8.25133949       5.43282614  T       0.00000000       0.00000000       0.00000000
Pd       2.75191587       8.25303708       5.43040881  T       0.00000000       0.00000000       0.00000000
Pd      -0.00066137       8.25387438       5.42990755  T       0.00000000       0.00000000       0.00000000
Pd       8.25114941       5.49585545       5.43748693  T       0.00000000       0.00000000       0.00000000
Pd       5.50445116       5.49905049       5.43357932  T       0.00000000       0.00000000       0.00000000
Pd       4.12772487       1.37458143       7.41601094  T       0.00000000       0.00000000       0.00000000
Pd       2.75366939       5.50118010       5.43202233  T       0.00000000       0.00000000       0.00000000
Pd       9.62947745       6.87863129       7.41528185  T       0.00000000       0.00000000       0.00000000
Pd       4.12909477       9.62726216       7.41651440  T       0.00000000       0.00000000       0.00000000
Pd       2.75023475       8.25473132       9.40973292  T       0.00000000       0.00000000       0.00000000
Pd       0.00214992       8.25257535       9.40882416  T       0.00000000       0.00000000       0.00000000
Pd       8.26204031       5.53772776       9.41670056  T       0.00000000       0.00000000       0.00000000
Pd       5.50162686       5.50050933       9.41834508  T       0.00000000       0.00000000       0.00000000
Pd       2.75216801       5.50401463       9.41090057  T       0.00000000       0.00000000       0.00000000
Pd       0.00440562       5.50855763       9.41195918  T       0.00000000       0.00000000       0.00000000
Pd       8.24053881       2.76859740       9.51789609  T       0.00000000       0.00000000       0.00000000
Pd       1.37639111       9.62832892       7.41422892  T       0.00000000       0.00000000       0.00000000
Pd       5.47039178       2.74211814       9.41748045  T       0.00000000       0.00000000       0.00000000
Pd       0.00912872       2.74655819       9.42868568  T       0.00000000       0.00000000       0.00000000
Pd       8.26074045      -0.00712496       9.43297046  T       0.00000000       0.00000000       0.00000000
Pd       5.49570374      -0.00701087       9.41404010  T       0.00000000       0.00000000       0.00000000
Pd       2.75277849      -0.00116541       9.40757616  T       0.00000000       0.00000000       0.00000000
Pd       0.01180783      -0.01075727       9.40694231  T       0.00000000       0.00000000       0.00000000
Pd       9.62742893       9.63607705       7.41742187  T       0.00000000       0.00000000       0.00000000
Pd       6.87979594       9.63695393       7.42251183  T       0.00000000       0.00000000       0.00000000
Pd       2.73378717       2.75126199       9.41169643  T       0.00000000       0.00000000       0.00000000
Pd       0.00289388       5.50356565       5.42678684  T       0.00000000       0.00000000       0.00000000
Pd       8.25220465       2.75126439       5.43698966  T       0.00000000       0.00000000       0.00000000
Pd       5.50963689       2.75223215       5.43876909  T       0.00000000       0.00000000       0.00000000
Pd       1.37558630       1.37558630       3.44537281  F       0.00000000       0.00000000       0.00000000
Pd       8.25351783       8.25351783       1.50000000  F       0.00000000       0.00000000       0.00000000
Pd       5.50234522       8.25351783       1.50000000  F       0.00000000       0.00000000       0.00000000
Pd       2.75117261       8.25351783       1.50000000  F       0.00000000       0.00000000       0.00000000
Pd       0.00000000       8.25351783       1.50000000  F       0.00000000       0.00000000       0.00000000
Pd       8.25351783       5.50234522       1.50000000  F       0.00000000       0.00000000       0.00000000
Pd       5.50234522       5.50234522       1.50000000  F       0.00000000       0.00000000       0.00000000
Pd       4.12675891       1.37558630       3.44537281  F       0.00000000       0.00000000       0.00000000
Pd       2.75117261       5.50234522       1.50000000  F       0.00000000       0.00000000       0.00000000
Pd       8.25351783       2.75117261       1.50000000  F       0.00000000       0.00000000       0.00000000
Pd       5.50234522       2.75117261       1.50000000  F       0.00000000       0.00000000       0.00000000
Pd       2.75117261       2.75117261       1.50000000  F       0.00000000       0.00000000       0.00000000
Pd       0.00000000       2.75117261       1.50000000  F       0.00000000       0.00000000       0.00000000
Pd       8.25351783       0.00000000       1.50000000  F       0.00000000       0.00000000       0.00000000
Pd       5.50234522       0.00000000       1.50000000  F       0.00000000       0.00000000       0.00000000
Pd       2.75117261       0.00000000       1.50000000  F       0.00000000       0.00000000       0.00000000
Pd       0.00000000       5.50234522       1.50000000  F       0.00000000       0.00000000       0.00000000
Pd       6.87793152       1.37558630       3.44537281  F       0.00000000       0.00000000       0.00000000
Pd       9.62910413       1.37558630       3.44537281  F       0.00000000       0.00000000       0.00000000
Pd       1.37558630       4.12675891       3.44537281  F       0.00000000       0.00000000       0.00000000
Pd       2.75235119       2.75235649       5.43127670  T       0.00000000       0.00000000       0.00000000
Pd      -0.00335382       2.75273298       5.43164598  T       0.00000000       0.00000000       0.00000000
Pd       8.25155159       0.00352204       5.43398907  T       0.00000000       0.00000000       0.00000000
Pd       5.50283223      -0.00297145       5.42894215  T       0.00000000       0.00000000       0.00000000
Pd       2.75189664       0.00009329       5.42984685  T       0.00000000       0.00000000       0.00000000
Pd       0.00092474      -0.00228234       5.42690342  T       0.00000000       0.00000000       0.00000000
Pd       9.62910413       9.62910413       3.44537281  F       0.00000000       0.00000000       0.00000000
Pd       6.87793152       9.62910413       3.44537281  F       0.00000000       0.00000000       0.00000000
Pd       4.12675891       9.62910413       3.44537281  F       0.00000000       0.00000000       0.00000000
Pd       1.37558630       9.62910413       3.44537281  F       0.00000000       0.00000000       0.00000000
Pd       9.62910413       6.87793152       3.44537281  F       0.00000000       0.00000000       0.00000000
Pd       6.87793152       6.87793152       3.44537281  F       0.00000000       0.00000000       0.00000000
Pd       4.12675891       6.87793152       3.44537281  F       0.00000000       0.00000000       0.00000000
Pd       1.37558630       6.87793152       3.44537281  F       0.00000000       0.00000000       0.00000000
Pd       9.62910413       4.12675891       3.44537281  F       0.00000000       0.00000000       0.00000000
Pd       6.87793152       4.12675891       3.44537281  F       0.00000000       0.00000000       0.00000000
Pd       4.12675891       4.12675891       3.44537281  F       0.00000000       0.00000000       0.00000000
Pd       5.50090786       8.25016526       9.41217520  T       0.00000000       0.00000000       0.00000000
Pd       8.25325626       8.27112796       9.41465244  T       0.00000000       0.00000000       0.00000000
C        8.77781208       2.22198202      11.19928750  T       0.00000000       0.00000000       0.00000000
O        9.02594138       1.98487617      12.31701612  T       0.00000000       0.00000000       0.00000000
