       N       E                     dE             d eps       ncg     rms          rms(c)
DAV:   1     0.463482540431E+03    0.46348E+03   -0.27365E+04  6760   0.173E+03
DAV:   2    -0.743313631891E+00   -0.46423E+03   -0.44943E+03  7348   0.497E+02
DAV:   3    -0.240908940278E+02   -0.23348E+02   -0.23045E+02  7412   0.114E+02
DAV:   4    -0.243652421096E+02   -0.27435E+00   -0.27416E+00  7276   0.134E+01
DAV:   5    -0.243680517979E+02   -0.28097E-02   -0.28094E-02  7484   0.140E+00    0.176E+01
DAV:   6    -0.227410093951E+02    0.16270E+01   -0.15539E+01  7036   0.357E+01    0.713E+00
DAV:   7    -0.221875340328E+02    0.55348E+00   -0.25395E+00  7076   0.172E+01    0.366E+00
DAV:   8    -0.222062314900E+02   -0.18697E-01   -0.40986E-01  7136   0.409E+00    0.151E+00
DAV:   9    -0.222017703493E+02    0.44611E-02   -0.24127E-02  7320   0.141E+00    0.442E-01
DAV:  10    -0.222031709896E+02   -0.14006E-02   -0.25991E-03  7132   0.420E-01    0.176E-01
DAV:  11    -0.222033598490E+02   -0.18886E-03   -0.36091E-04  7380   0.128E-01    0.866E-02
DAV:  12    -0.222033711227E+02   -0.11274E-04   -0.51910E-05  7216   0.533E-02    0.209E-02
DAV:  13    -0.222033811588E+02   -0.10036E-04   -0.13317E-05  7168   0.258E-02    0.844E-03
DAV:  14    -0.222033825761E+02   -0.14174E-05   -0.17124E-06  5084   0.103E-02    0.332E-03
DAV:  15    -0.222033827974E+02   -0.22128E-06   -0.55287E-07  4276   0.593E-03
   1 F= -.23447106E+02 E0= -.23446399E+02  d E =-.141477E-02  mag=    -0.0000
