 vasp.6.4.3 19Mar24 (build Nov 27 2025 15:18:09) complex                         
 executed on              LinuxNV date 2026.06.04  16:40:12
 running    4 mpi-ranks, with    1 threads/rank, on    1 nodes
 distrk:  each k-point on    4 cores,    1 groups
 distr:  one band on NCORE=   1 cores,    4 groups
 OpenACC runtime initialized ...    0 GPUs detected


--------------------------------------------------------------------------------------------------------


 INCAR:
   SYSTEM = pddmc
   ENCUT = 500
   PREC = Accurate
   LASPH = .TRUE.
   ADDGRID = .TRUE.
   ISPIN = 2
   IVDW = 12
   EDIFF = 1e-06
   NELM = 200
   NELMIN = 5
   ALGO = Normal
   NCORE = 1
   LREAL = .FALSE.
   LWAVE = .FALSE.
   LCHARG = .FALSE.
   LORBIT = 11
   ISYM = 2
   IBRION = -1
   NSW = 0
   ISIF = 0
   ISMEAR = 0
   SIGMA = 0.05
   EDIFFG = -0.01

 POTCAR:    PAW_PBE Pd_pv 28Jan2005               
 POTCAR:    PAW_PBE O 08Apr2002                   
 -----------------------------------------------------------------------------
|                                                                             |
|           W    W    AA    RRRRR   N    N  II  N    N   GGGG   !!!           |
|           W    W   A  A   R    R  NN   N  II  NN   N  G    G  !!!           |
|           W    W  A    A  R    R  N N  N  II  N N  N  G       !!!           |
|           W WW W  AAAAAA  RRRRR   N  N N  II  N  N N  G  GGG   !            |
|           WW  WW  A    A  R   R   N   NN  II  N   NN  G    G                |
|           W    W  A    A  R    R  N    N  II  N    N   GGGG   !!!           |
|                                                                             |
|     You use a magnetic or noncollinear calculation, but did not specify     |
|     the initial magnetic moment with the MAGMOM tag. Note that a            |
|     default of 1 will be used for all atoms. This ferromagnetic setup       |
|     may break the symmetry of the crystal, in particular it may rule        |
|     out finding an antiferromagnetic solution. Thence, we recommend         |
|     setting the initial magnetic moment manually or verifying carefully     |
|     that this magnetic setup is desired.                                    |
|                                                                             |
 -----------------------------------------------------------------------------

 POTCAR:    PAW_PBE Pd_pv 28Jan2005               
   SHA256 =  3ce661545bbde58da9a95410dea32907db2844916708bcd35bbe03ee66324d7f Pd_pv/POTCAR          
   COPYR  = (c) Copyright 28Jan2005 Georg Kresse                                                    
   COPYR  = This file is part of the software VASP. Any use, copying, and all other rights are regul
   COPYR  = If you do not have a valid VASP license, you may not use, copy or distribute this file. 
   VRHFIN =Pd: 4p5s4d                                                                               
   LEXCH  = PE                                                                                      
   EATOM  =  2621.5550 eV,  192.6789 Ry                                                             
                                                                                                    
   TITEL  = PAW_PBE Pd_pv 28Jan2005                                                                 
   LULTRA =        F    use ultrasoft PP ?                                                          
   IUNSCR =        1    unscreen: 0-lin 1-nonlin 2-no                                               
   RPACOR =    2.250    partial core radius                                                         
   POMASS =  106.420; ZVAL   =   16.000    mass and valenz                                          
   RCORE  =    2.400    outmost cutoff radius                                                       
   RWIGS  =    2.300; RWIGS  =    1.217    wigner-seitz radius (au A)                               
   ENMAX  =  250.925; ENMIN  =  188.194 eV                                                          
   ICORE  =        3    local potential                                                             
   LCOR   =        T    correct aug charges                                                         
   LPAW   =        T    paw PP                                                                      
   EAUG   =  473.067                                                                                
   DEXC   =    0.000                                                                                
   RMAX   =    2.449    core radius for proj-oper                                                   
   RAUG   =    1.300    factor for augmentation sphere                                              
   RDEP   =    2.405    radius for radial grids                                                     
   RDEPT  =    1.966    core radius for aug-charge                                                  
                                                                                                    
   Atomic configuration                                                                             
   11 entries                                                                                       
     n  l   j            E        occ.                                                              
     1  0  0.50    -24164.6632   2.0000                                                             
     2  0  0.50     -3530.9218   2.0000                                                             
     2  1  1.50     -3165.6822   6.0000                                                             
     3  0  0.50      -639.4578   2.0000                                                             
     3  1  1.50      -519.4532   6.0000                                                             
     3  2  2.50      -328.9758  10.0000                                                             
     4  0  0.50       -88.7014   2.0000                                                             
     4  1  1.50       -54.4541   6.0000                                                             
     4  2  2.50        -6.6878   9.0000                                                             
     5  0  0.50        -4.3543   1.0000                                                             
     4  3  2.50        -1.3606   0.0000                                                             
   Description                                                                                      
     l       E           TYP  RCUT    TYP  RCUT                                                     
     1    -54.4540524     23  2.100                                                                 
     1      4.0817478     23  2.100                                                                 
     2     -6.6878326     23  2.400                                                                 
     2     -4.0817478     23  2.400                                                                 
     0     -4.3542962     23  2.400                                                                 
     0     13.6058260     23  2.400                                                                 
     3     -5.4423304     23  2.400                                                                 
  local pseudopotential read in
  partial core-charges read in
  partial kinetic energy density read in
  atomic valenz-charges read in
  non local Contribution for L=            1  read in
    real space projection operators read in
  non local Contribution for L=            1  read in
    real space projection operators read in
  non local Contribution for L=            2  read in
    real space projection operators read in
  non local Contribution for L=            2  read in
    real space projection operators read in
  non local Contribution for L=            0  read in
    real space projection operators read in
  non local Contribution for L=            0  read in
    real space projection operators read in
    PAW grid and wavefunctions read in
 
   number of l-projection  operators is LMAX  =            6
   number of lm-projection operators is LMMAX =           18
 
 POTCAR:    PAW_PBE O 08Apr2002                   
   SHA256 =  818f92134a0a090dccd8ba1447fa70422a3b330e708bb4f08108d8ae51209ddf O/POTCAR              
   COPYR  = (c) Copyright 08Apr2002 Georg Kresse                                                    
   COPYR  = This file is part of the software VASP. Any use, copying, and all other rights are regul
   COPYR  = If you do not have a valid VASP license, you may not use, copy or distribute this file. 
   VRHFIN =O: s2p4                                                                                  
   LEXCH  = PE                                                                                      
   EATOM  =   432.3788 eV,   31.7789 Ry                                                             
                                                                                                    
   TITEL  = PAW_PBE O 08Apr2002                                                                     
   LULTRA =        F    use ultrasoft PP ?                                                          
   IUNSCR =        1    unscreen: 0-lin 1-nonlin 2-no                                               
   RPACOR =    1.200    partial core radius                                                         
   POMASS =   16.000; ZVAL   =    6.000    mass and valenz                                          
   RCORE  =    1.520    outmost cutoff radius                                                       
   RWIGS  =    1.550; RWIGS  =    0.820    wigner-seitz radius (au A)                               
   ENMAX  =  400.000; ENMIN  =  300.000 eV                                                          
   ICORE  =        2    local potential                                                             
   LCOR   =        T    correct aug charges                                                         
   LPAW   =        T    paw PP                                                                      
   EAUG   =  605.392                                                                                
   DEXC   =    0.000                                                                                
   RMAX   =    1.553    core radius for proj-oper                                                   
   RAUG   =    1.300    factor for augmentation sphere                                              
   RDEP   =    1.550    radius for radial grids                                                     
   RDEPT  =    1.329    core radius for aug-charge                                                  
                                                                                                    
   Atomic configuration                                                                             
    4 entries                                                                                       
     n  l   j            E        occ.                                                              
     1  0  0.50      -514.6923   2.0000                                                             
     2  0  0.50       -23.9615   2.0000                                                             
     2  1  0.50        -9.0305   4.0000                                                             
     3  2  1.50        -9.5241   0.0000                                                             
   Description                                                                                      
     l       E           TYP  RCUT    TYP  RCUT                                                     
     0    -23.9615318     23  1.200                                                                 
     0     -9.5240782     23  1.200                                                                 
     1     -9.0304911     23  1.520                                                                 
     1      8.1634956     23  1.520                                                                 
     2     -9.5240782      7  1.500                                                                 
  local pseudopotential read in
  partial core-charges read in
  partial kinetic energy density read in
  kinetic energy density of atom read in
  atomic valenz-charges read in
  non local Contribution for L=            0  read in
    real space projection operators read in
  non local Contribution for L=            0  read in
    real space projection operators read in
  non local Contribution for L=            1  read in
    real space projection operators read in
  non local Contribution for L=            1  read in
    real space projection operators read in
    PAW grid and wavefunctions read in
 
   number of l-projection  operators is LMAX  =            4
   number of lm-projection operators is LMMAX =            8
 
  PAW_PBE Pd_pv 28Jan2005               :
 energy of atom  1       EATOM=-2621.5550
 kinetic energy error for atom=    0.0092 (will be added to EATOM!!)
  PAW_PBE O 08Apr2002                   :
 energy of atom  2       EATOM= -432.3788
 kinetic energy error for atom=    0.0224 (will be added to EATOM!!)
 
 
 POSCAR: Pd O
  positions in cartesian coordinates
  No initial velocities read in
 IVDW         = 12
 VDW_S6       =    1.0000
 VDW_S8       =    0.7875
 VDW_A1       =    0.4289
 VDW_A2       =    4.4407
 VDW_RADIUS   =   50.2022 A
 VDW_CNRADIUS =   21.1671 A


 exchange-correlation table for PE
   RHO(1)=    0.500       N(1)  =     2000
   RHO(2)=  100.500       N(2)  =     4000
 


--------------------------------------------------------------------------------------------------------


 ion  position               nearest neighbor table
   1  0.500  0.000  0.500-   3 2.03   4 2.03   3 2.03   4 2.03
   2  0.000  0.500  0.000-   3 2.03   4 2.03   3 2.03   4 2.03
   3  0.000  0.000  0.750-   1 2.03   2 2.03   2 2.03   1 2.03
   4  0.000  0.000  0.250-   1 2.03   2 2.03   2 2.03   1 2.03
 
  LATTYP: Found a simple tetragonal cell.
 ALAT       =     3.0536041100
 C/A-ratio  =     1.7589892457
  
  Lattice vectors:
  
 A1 = (   3.0536041100,   0.0000000000,   0.0000000000)
 A2 = (   0.0000000000,   3.0536041100,   0.0000000000)
 A3 = (   0.0000000000,   0.0000000000,   5.3712567900)


Analysis of symmetry for initial positions (statically):
=====================================================================
 Subroutine PRICEL returns:
 Original cell was already a primitive cell.
 

 Routine SETGRP: Setting up the symmetry group for a 
 simple tetragonal supercell.


 Subroutine GETGRP returns: Found 16 space group operations
 (whereof  8 operations were pure point group operations)
 out of a pool of 16 trial point group operations.


The static configuration has the point symmetry D_2h.
 The point group associated with its full space group is D_4h.


Analysis of symmetry for dynamics (positions and initial velocities):
=====================================================================
 Subroutine PRICEL returns:
 Original cell was already a primitive cell.
 

 Routine SETGRP: Setting up the symmetry group for a 
 simple tetragonal supercell.


 Subroutine GETGRP returns: Found 16 space group operations
 (whereof  8 operations were pure point group operations)
 out of a pool of 16 trial point group operations.


The dynamic configuration has the point symmetry D_2h.
 The point group associated with its full space group is D_4h.


Analysis of structural, dynamic, and magnetic symmetry:
=====================================================================
 Subroutine PRICEL returns:
 Original cell was already a primitive cell.
 

 Routine SETGRP: Setting up the symmetry group for a 
 simple tetragonal supercell.


 Subroutine GETGRP returns: Found 16 space group operations
 (whereof  8 operations were pure point group operations)
 out of a pool of 16 trial point group operations.


The overall configuration has the point symmetry D_2h.
 The point group associated with its full space group is D_4h.


 Subroutine INISYM returns: Found 16 space group operations
 (whereof  8 operations are pure point group operations),
 and found     1 'primitive' translations


----------------------------------------------------------------------------------------

                                     Primitive cell                                     

  volume of cell :      50.0843

  direct lattice vectors                    reciprocal lattice vectors
     3.053604110  0.000000000  0.000000000     0.327481875 -0.000000000  0.000000000
     0.000000000  3.053604110  0.000000000     0.000000000  0.327481875  0.000000000
     0.000000000  0.000000000  5.371256790    -0.000000000 -0.000000000  0.186176167

  length of vectors
     3.053604110  3.053604110  5.371256790     0.327481875  0.327481875  0.186176167

  position of ions in fractional coordinates (direct lattice)
     0.500000000  0.000000000  0.500000000
     0.000000000  0.500000000  0.000000000
     0.000000000  0.000000000  0.750000000
     0.000000000  0.000000000  0.250000000

  ion indices of the primitive-cell ions
   primitive index   ion index
                 1           1
                 2           2
                 3           3
                 4           4

----------------------------------------------------------------------------------------

 
 
 KPOINTS: Automatic mesh                          

Automatic generation of k-mesh.
 Grid dimensions read from file:
 generate k-points for:    8    8    6

 Generating k-lattice:

  Cartesian coordinates                     Fractional coordinates (reciprocal lattice)
     0.040935234 -0.000000000  0.000000000     0.125000000  0.000000000  0.000000000
     0.000000000  0.040935234  0.000000000     0.000000000  0.125000000  0.000000000
    -0.000000000 -0.000000000  0.031029361     0.000000000  0.000000000  0.166666667

  Length of vectors
     0.040935234  0.040935234  0.031029361

  Shift w.r.t. Gamma in fractional coordinates (k-lattice)
     0.000000000  0.000000000  0.000000000

 
 Subroutine IBZKPT returns following result:
 ===========================================
 
 Found     60 irreducible k-points:
 
 Following reciprocal coordinates:
            Coordinates               Weight
  0.000000  0.000000  0.000000      1.000000
  0.125000  0.000000  0.000000      4.000000
  0.250000  0.000000  0.000000      4.000000
  0.375000  0.000000  0.000000      4.000000
  0.500000  0.000000  0.000000      2.000000
  0.125000  0.125000  0.000000      4.000000
  0.250000  0.125000  0.000000      8.000000
  0.375000  0.125000  0.000000      8.000000
  0.500000  0.125000  0.000000      4.000000
  0.250000  0.250000  0.000000      4.000000
  0.375000  0.250000  0.000000      8.000000
  0.500000  0.250000  0.000000      4.000000
  0.375000  0.375000  0.000000      4.000000
  0.500000  0.375000  0.000000      4.000000
  0.500000  0.500000  0.000000      1.000000
  0.000000  0.000000  0.166667      2.000000
  0.125000  0.000000  0.166667      8.000000
  0.250000  0.000000  0.166667      8.000000
  0.375000  0.000000  0.166667      8.000000
  0.500000  0.000000  0.166667      4.000000
  0.125000  0.125000  0.166667      8.000000
  0.250000  0.125000  0.166667     16.000000
  0.375000  0.125000  0.166667     16.000000
  0.500000  0.125000  0.166667      8.000000
  0.250000  0.250000  0.166667      8.000000
  0.375000  0.250000  0.166667     16.000000
  0.500000  0.250000  0.166667      8.000000
  0.375000  0.375000  0.166667      8.000000
  0.500000  0.375000  0.166667      8.000000
  0.500000  0.500000  0.166667      2.000000
  0.000000  0.000000  0.333333      2.000000
  0.125000  0.000000  0.333333      8.000000
  0.250000  0.000000  0.333333      8.000000
  0.375000  0.000000  0.333333      8.000000
  0.500000  0.000000  0.333333      4.000000
  0.125000  0.125000  0.333333      8.000000
  0.250000  0.125000  0.333333     16.000000
  0.375000  0.125000  0.333333     16.000000
  0.500000  0.125000  0.333333      8.000000
  0.250000  0.250000  0.333333      8.000000
  0.375000  0.250000  0.333333     16.000000
  0.500000  0.250000  0.333333      8.000000
  0.375000  0.375000  0.333333      8.000000
  0.500000  0.375000  0.333333      8.000000
  0.500000  0.500000  0.333333      2.000000
  0.000000  0.000000  0.500000      1.000000
  0.125000  0.000000  0.500000      4.000000
  0.250000  0.000000  0.500000      4.000000
  0.375000  0.000000  0.500000      4.000000
  0.500000  0.000000  0.500000      2.000000
  0.125000  0.125000  0.500000      4.000000
  0.250000  0.125000  0.500000      8.000000
  0.375000  0.125000  0.500000      8.000000
  0.500000  0.125000  0.500000      4.000000
  0.250000  0.250000  0.500000      4.000000
  0.375000  0.250000  0.500000      8.000000
  0.500000  0.250000  0.500000      4.000000
  0.375000  0.375000  0.500000      4.000000
  0.500000  0.375000  0.500000      4.000000
  0.500000  0.500000  0.500000      1.000000
 
 Following cartesian coordinates:
            Coordinates               Weight
  0.000000  0.000000  0.000000      1.000000
  0.040935  0.000000  0.000000      4.000000
  0.081870  0.000000  0.000000      4.000000
  0.122806  0.000000  0.000000      4.000000
  0.163741  0.000000  0.000000      2.000000
  0.040935  0.040935  0.000000      4.000000
  0.081870  0.040935  0.000000      8.000000
  0.122806  0.040935  0.000000      8.000000
  0.163741  0.040935  0.000000      4.000000
  0.081870  0.081870  0.000000      4.000000
  0.122806  0.081870  0.000000      8.000000
  0.163741  0.081870  0.000000      4.000000
  0.122806  0.122806  0.000000      4.000000
  0.163741  0.122806  0.000000      4.000000
  0.163741  0.163741  0.000000      1.000000
  0.000000  0.000000  0.031029      2.000000
  0.040935  0.000000  0.031029      8.000000
  0.081870  0.000000  0.031029      8.000000
  0.122806  0.000000  0.031029      8.000000
  0.163741  0.000000  0.031029      4.000000
  0.040935  0.040935  0.031029      8.000000
  0.081870  0.040935  0.031029     16.000000
  0.122806  0.040935  0.031029     16.000000
  0.163741  0.040935  0.031029      8.000000
  0.081870  0.081870  0.031029      8.000000
  0.122806  0.081870  0.031029     16.000000
  0.163741  0.081870  0.031029      8.000000
  0.122806  0.122806  0.031029      8.000000
  0.163741  0.122806  0.031029      8.000000
  0.163741  0.163741  0.031029      2.000000
  0.000000  0.000000  0.062059      2.000000
  0.040935  0.000000  0.062059      8.000000
  0.081870  0.000000  0.062059      8.000000
  0.122806  0.000000  0.062059      8.000000
  0.163741  0.000000  0.062059      4.000000
  0.040935  0.040935  0.062059      8.000000
  0.081870  0.040935  0.062059     16.000000
  0.122806  0.040935  0.062059     16.000000
  0.163741  0.040935  0.062059      8.000000
  0.081870  0.081870  0.062059      8.000000
  0.122806  0.081870  0.062059     16.000000
  0.163741  0.081870  0.062059      8.000000
  0.122806  0.122806  0.062059      8.000000
  0.163741  0.122806  0.062059      8.000000
  0.163741  0.163741  0.062059      2.000000
  0.000000  0.000000  0.093088      1.000000
  0.040935  0.000000  0.093088      4.000000
  0.081870  0.000000  0.093088      4.000000
  0.122806  0.000000  0.093088      4.000000
  0.163741  0.000000  0.093088      2.000000
  0.040935  0.040935  0.093088      4.000000
  0.081870  0.040935  0.093088      8.000000
  0.122806  0.040935  0.093088      8.000000
  0.163741  0.040935  0.093088      4.000000
  0.081870  0.081870  0.093088      4.000000
  0.122806  0.081870  0.093088      8.000000
  0.163741  0.081870  0.093088      4.000000
  0.122806  0.122806  0.093088      4.000000
  0.163741  0.122806  0.093088      4.000000
  0.163741  0.163741  0.093088      1.000000
 


--------------------------------------------------------------------------------------------------------




 Dimension of arrays:
   k-points           NKPTS =     60   k-points in BZ     NKDIM =     60   number of bands    NBANDS=     28
   number of dos      NEDOS =    301   number of ions     NIONS =      4
   non local maximal  LDIM  =      6   non local SUM 2l+1 LMDIM =     18
   total plane-waves  NPLWV =  23040
   max r-space proj   IRMAX =      1   max aug-charges    IRDMAX= 147517
   dimension x,y,z NGX =    24 NGY =   24 NGZ =   40
   dimension x,y,z NGXF=    48 NGYF=   48 NGZF=   80
   support grid    NGXF=    96 NGYF=   96 NGZF=  160
   ions per type =               2   2
   NGX,Y,Z   is equivalent  to a cutoff of  13.07, 13.07, 12.38 a.u.
   NGXF,Y,Z  is equivalent  to a cutoff of  26.13, 26.13, 24.76 a.u.

 SYSTEM =  pddmc                                   
 POSCAR =  Pd O                                    

 Startparameter for this run:
   NWRITE =      2    write-flag & timer
   PREC   = accura    normal or accurate (medium, high low for compatibility)
   ISTART =      0    job   : 0-new  1-cont  2-samecut
   ICHARG =      2    charge: 1-file 2-atom 10-const
   ISPIN  =      2    spin polarized calculation?
   LNONCOLLINEAR =      F non collinear calculations
   LSORBIT =      F    spin-orbit coupling
   INIWAV =      1    electr: 0-lowe 1-rand  2-diag
   LASPH  =      T    aspherical Exc in radial PAW
 Electronic Relaxation 1
   ENCUT  =  500.0 eV  36.75 Ry    6.06 a.u.   5.57  5.57  9.79*2*pi/ulx,y,z
   ENINI  =  500.0     initial cutoff
   ENAUG  =  605.4 eV  augmentation charge cutoff
   NELM   =    200;   NELMIN=  5; NELMDL= -5     # of ELM steps 
   EDIFF  = 0.1E-05   stopping-criterion for ELM
   LREAL  =      F    real-space projection
   NLSPLINE    = F    spline interpolate recip. space projectors
   LCOMPAT=      F    compatible to vasp.4.4
   GGA_COMPAT  = T    GGA compatible to vasp.4.4-vasp.4.6
   LMAXPAW     = -100 max onsite density
   LMAXMIX     =    2 max onsite mixed and CHGCAR
   VOSKOWN=      0    Vosko Wilk Nusair interpolation
   ROPT   =    0.00000   0.00000
 Ionic relaxation
   EDIFFG = -.1E-01   stopping-criterion for IOM
   NSW    =      0    number of steps for IOM
   NBLOCK =      1;   KBLOCK =      1    inner block; outer block 
   IBRION =     -1    ionic relax: 0-MD 1-quasi-New 2-CG
   NFREE  =      0    steps in history (QN), initial steepest desc. (CG)
   ISIF   =      0    stress and relaxation
   IWAVPR =     10    prediction:  0-non 1-charg 2-wave 3-comb
   ISYM   =      2    0-nonsym 1-usesym 2-fastsym
   LCORR  =      T    Harris-Foulkes like correction to forces

   POTIM  = 0.5000    time-step for ionic-motion
   TEIN   =    0.0    initial temperature
   TEBEG  =    0.0;   TEEND  =   0.0 temperature during run
   SMASS  =  -3.00    Nose mass-parameter (am)
   estimated Nose-frequenzy (Omega)   =  0.10E-29 period in steps = 0.13E+47 mass=  -0.213E-27a.u.
   SCALEE = 1.0000    scale energy and forces
   NPACO  =    256;   APACO  = 10.0  distance and # of slots for P.C.
   PSTRESS=    0.0 pullay stress

  Mass of Ions in am
   POMASS = 106.42 16.00
  Ionic Valenz
   ZVAL   =  16.00  6.00
  Atomic Wigner-Seitz radii
   RWIGS  =  -1.00 -1.00
  virtual crystal weights 
   VCA    =   1.00  1.00
   NELECT =      44.0000    total number of electrons
   NUPDOWN=      -1.0000    fix difference up-down

 DOS related values:
   EMIN   =  10.00;   EMAX   =-10.00  energy-range for DOS
   EFERMI =   0.00;   METHOD = LEGACY      
   ISMEAR =     0;   SIGMA  =   0.05  broadening in eV -4-tet -1-fermi 0-gaus

 Electronic relaxation 2 (details)
   IALGO  =     38    algorithm
   LDIAG  =      T    sub-space diagonalisation (order eigenvalues)
   LSUBROT=      F    optimize rotation matrix (better conditioning)
   TURBO    =      0    0=normal 1=particle mesh
   IRESTART =      0    0=no restart 2=restart with 2 vectors
   NREBOOT  =      0    no. of reboots
   NMIN     =      0    reboot dimension
   EREF     =   0.00    reference energy to select bands
   IMIX   =      4    mixing-type and parameters
     AMIX     =   0.40;   BMIX     =  1.00
     AMIX_MAG =   1.60;   BMIX_MAG =  1.00
     AMIN     =   0.10
     WC   =   100.;   INIMIX=   1;  MIXPRE=   1;  MAXMIX= -45

 Intra band minimization:
   WEIMIN = 0.0000     energy-eigenvalue tresh-hold
   EBREAK =  0.89E-08  absolut break condition
   DEPER  =   0.30     relativ break condition  

   TIME   =   0.40     timestep for ELM

  volume/ion in A,a.u.               =      12.52        84.50
  Fermi-wavevector in a.u.,A,eV,Ry     =   1.567925  2.962948 33.448407  2.458389
  Thomas-Fermi vector in A             =   2.670032
 
 Write flags
   LWAVE        =      F    write WAVECAR
   LDOWNSAMPLE  =      F    k-point downsampling of WAVECAR
   LCHARG       =      F    write CHGCAR
   LVTOT        =      F    write LOCPOT, total local potential
   LVHAR        =      F    write LOCPOT, Hartree potential only
   WRT_POTENTIAL= false  ! write potential to hdf5 file
   LELF         =      F    write electronic localiz. function (ELF)
   LORBIT       =     11    0 simple, 1 ext, 2 COOP (PROOUT), +10 PAW based schemes


 Dipole corrections
   LMONO      =      F    monopole corrections only (constant potential shift)
   LDIPOL     =      F    correct potential (dipole corrections)
   IDIPOL     =      0    1-x, 2-y, 3-z, 4-all directions 
   EPSILON    =  1.0000000 bulk dielectric constant
   LVACPOTAV  =      F  vacuum potentials using an averaging scheme for the charge density
   VACPOTFLAT =  0.1000000 required flatness to determine vacuum potential
 Exchange correlation treatment:
   GGA     = PE    functional components
   XC_C    = 1    coefficients multiplying the functional components
   LIBXC   =     F    Libxc                    
   VOSKOWN =     0    Vosko Wilk Nusair interpolation
   LHFCALC =     F    Hartree Fock is set to
   LHFONE  =     F    Hartree Fock one center treatment
   AEXX    =    0.0000 exact exchange contribution

 Parameters of functionals:
   PE:
     No parameter
 
 Van der Waals corrections
   IVDW    =    12    specifies the selected vdW correction

 Linear response parameters
   LEPSILON=     F    determine dielectric tensor
   LRPA    =     F    only Hartree local field effects (RPA)
   LNABLA  =     F    use nabla operator in PAW spheres
   LVEL    =     F    velocity operator in full k-point grid
   CSHIFT  =0.1000    complex shift for real part using Kramers Kronig
   OMEGAMAX=  -1.0    maximum frequency
   DEG_THRESHOLD= 0.2000000E-02 threshold for treating states as degnerate
   RTIME   =   -0.100 relaxation time in fs
  (WPLASMAI=    0.000 imaginary part of plasma frequency in eV, 0.658/RTIME)
   DFIELD  = 0.0000000 0.0000000 0.0000000 field for delta impulse in time
 
  Optional k-point grid parameters
   LKPOINTS_OPT  =     F    use optional k-point grid
   KPOINTS_OPT_MODE=     1    mode for optional k-point grid
 
 Orbital magnetization related:
   ORBITALMAG=     F  switch on orbital magnetization
   LCHIMAG   =     F  perturbation theory with respect to B field
   DQ        =  0.001000  dq finite difference perturbation B field
   LLRAUG    =     F  two centre corrections for induced B field
   LBONE     =     F  B-component reconstruction in AE one-centre
   LVGVCALC  =     T  calculate vGv susceptibility
   LVGVAPPL  =     F  apply vGv susceptibility instead of pGv for G=0

 Random number generation:
   RANDOM_GENERATOR = DEFAULT
   PCG_SEED         = not used


--------------------------------------------------------------------------------------------------------


 Static calculation
 charge density and potential will be updated during run
 spin polarized calculation
 Variant of blocked Davidson
 Davidson routine will perform the subspace rotation
 perform sub-space diagonalisation
    after iterative eigenvector-optimisation
 modified Broyden-mixing scheme, WC =      100.0
 initial mixing is a Kerker type mixing with AMIX =  0.4000 and BMIX =      1.0000
 Hartree-type preconditioning will be used
 using additional bands             6
 reciprocal scheme for non local part
 use partial core corrections
 calculate Harris-corrections to forces 
   (improved forces if not selfconsistent)
 use gradient corrections 
 use of overlap-Matrix (Vanderbilt PP)
 Gauss-broadening in eV      SIGMA  =   0.05


--------------------------------------------------------------------------------------------------------


  energy-cutoff  :      500.00
  volume of cell :       50.08
      direct lattice vectors                 reciprocal lattice vectors
     3.053604110  0.000000000  0.000000000     0.327481875 -0.000000000  0.000000000
     0.000000000  3.053604110  0.000000000     0.000000000  0.327481875  0.000000000
     0.000000000  0.000000000  5.371256790    -0.000000000 -0.000000000  0.186176167

  length of vectors
     3.053604110  3.053604110  5.371256790     0.327481875  0.327481875  0.186176167


 
 k-points in units of 2pi/SCALE and weight: Automatic mesh                          
   0.00000000  0.00000000  0.00000000       0.003
   0.04093523  0.00000000  0.00000000       0.010
   0.08187047  0.00000000  0.00000000       0.010
   0.12280570  0.00000000  0.00000000       0.010
   0.16374094  0.00000000  0.00000000       0.005
   0.04093523  0.04093523  0.00000000       0.010
   0.08187047  0.04093523  0.00000000       0.021
   0.12280570  0.04093523  0.00000000       0.021
   0.16374094  0.04093523  0.00000000       0.010
   0.08187047  0.08187047  0.00000000       0.010
   0.12280570  0.08187047  0.00000000       0.021
   0.16374094  0.08187047  0.00000000       0.010
   0.12280570  0.12280570  0.00000000       0.010
   0.16374094  0.12280570  0.00000000       0.010
   0.16374094  0.16374094  0.00000000       0.003
   0.00000000  0.00000000  0.03102936       0.005
   0.04093523  0.00000000  0.03102936       0.021
   0.08187047  0.00000000  0.03102936       0.021
   0.12280570  0.00000000  0.03102936       0.021
   0.16374094  0.00000000  0.03102936       0.010
   0.04093523  0.04093523  0.03102936       0.021
   0.08187047  0.04093523  0.03102936       0.042
   0.12280570  0.04093523  0.03102936       0.042
   0.16374094  0.04093523  0.03102936       0.021
   0.08187047  0.08187047  0.03102936       0.021
   0.12280570  0.08187047  0.03102936       0.042
   0.16374094  0.08187047  0.03102936       0.021
   0.12280570  0.12280570  0.03102936       0.021
   0.16374094  0.12280570  0.03102936       0.021
   0.16374094  0.16374094  0.03102936       0.005
   0.00000000  0.00000000  0.06205872       0.005
   0.04093523  0.00000000  0.06205872       0.021
   0.08187047  0.00000000  0.06205872       0.021
   0.12280570  0.00000000  0.06205872       0.021
   0.16374094  0.00000000  0.06205872       0.010
   0.04093523  0.04093523  0.06205872       0.021
   0.08187047  0.04093523  0.06205872       0.042
   0.12280570  0.04093523  0.06205872       0.042
   0.16374094  0.04093523  0.06205872       0.021
   0.08187047  0.08187047  0.06205872       0.021
   0.12280570  0.08187047  0.06205872       0.042
   0.16374094  0.08187047  0.06205872       0.021
   0.12280570  0.12280570  0.06205872       0.021
   0.16374094  0.12280570  0.06205872       0.021
   0.16374094  0.16374094  0.06205872       0.005
   0.00000000  0.00000000  0.09308808       0.003
   0.04093523  0.00000000  0.09308808       0.010
   0.08187047  0.00000000  0.09308808       0.010
   0.12280570  0.00000000  0.09308808       0.010
   0.16374094  0.00000000  0.09308808       0.005
   0.04093523  0.04093523  0.09308808       0.010
   0.08187047  0.04093523  0.09308808       0.021
   0.12280570  0.04093523  0.09308808       0.021
   0.16374094  0.04093523  0.09308808       0.010
   0.08187047  0.08187047  0.09308808       0.010
   0.12280570  0.08187047  0.09308808       0.021
   0.16374094  0.08187047  0.09308808       0.010
   0.12280570  0.12280570  0.09308808       0.010
   0.16374094  0.12280570  0.09308808       0.010
   0.16374094  0.16374094  0.09308808       0.003
 
 k-points in reciprocal lattice and weights: Automatic mesh                          
   0.00000000  0.00000000  0.00000000       0.003
   0.12500000  0.00000000  0.00000000       0.010
   0.25000000  0.00000000  0.00000000       0.010
   0.37500000  0.00000000  0.00000000       0.010
   0.50000000  0.00000000  0.00000000       0.005
   0.12500000  0.12500000  0.00000000       0.010
   0.25000000  0.12500000  0.00000000       0.021
   0.37500000  0.12500000  0.00000000       0.021
   0.50000000  0.12500000  0.00000000       0.010
   0.25000000  0.25000000  0.00000000       0.010
   0.37500000  0.25000000  0.00000000       0.021
   0.50000000  0.25000000  0.00000000       0.010
   0.37500000  0.37500000  0.00000000       0.010
   0.50000000  0.37500000  0.00000000       0.010
   0.50000000  0.50000000  0.00000000       0.003
   0.00000000  0.00000000  0.16666667       0.005
   0.12500000  0.00000000  0.16666667       0.021
   0.25000000  0.00000000  0.16666667       0.021
   0.37500000  0.00000000  0.16666667       0.021
   0.50000000  0.00000000  0.16666667       0.010
   0.12500000  0.12500000  0.16666667       0.021
   0.25000000  0.12500000  0.16666667       0.042
   0.37500000  0.12500000  0.16666667       0.042
   0.50000000  0.12500000  0.16666667       0.021
   0.25000000  0.25000000  0.16666667       0.021
   0.37500000  0.25000000  0.16666667       0.042
   0.50000000  0.25000000  0.16666667       0.021
   0.37500000  0.37500000  0.16666667       0.021
   0.50000000  0.37500000  0.16666667       0.021
   0.50000000  0.50000000  0.16666667       0.005
   0.00000000  0.00000000  0.33333333       0.005
   0.12500000  0.00000000  0.33333333       0.021
   0.25000000  0.00000000  0.33333333       0.021
   0.37500000  0.00000000  0.33333333       0.021
   0.50000000  0.00000000  0.33333333       0.010
   0.12500000  0.12500000  0.33333333       0.021
   0.25000000  0.12500000  0.33333333       0.042
   0.37500000  0.12500000  0.33333333       0.042
   0.50000000  0.12500000  0.33333333       0.021
   0.25000000  0.25000000  0.33333333       0.021
   0.37500000  0.25000000  0.33333333       0.042
   0.50000000  0.25000000  0.33333333       0.021
   0.37500000  0.37500000  0.33333333       0.021
   0.50000000  0.37500000  0.33333333       0.021
   0.50000000  0.50000000  0.33333333       0.005
   0.00000000  0.00000000  0.50000000       0.003
   0.12500000  0.00000000  0.50000000       0.010
   0.25000000  0.00000000  0.50000000       0.010
   0.37500000  0.00000000  0.50000000       0.010
   0.50000000  0.00000000  0.50000000       0.005
   0.12500000  0.12500000  0.50000000       0.010
   0.25000000  0.12500000  0.50000000       0.021
   0.37500000  0.12500000  0.50000000       0.021
   0.50000000  0.12500000  0.50000000       0.010
   0.25000000  0.25000000  0.50000000       0.010
   0.37500000  0.25000000  0.50000000       0.021
   0.50000000  0.25000000  0.50000000       0.010
   0.37500000  0.37500000  0.50000000       0.010
   0.50000000  0.37500000  0.50000000       0.010
   0.50000000  0.50000000  0.50000000       0.003
 
 position of ions in fractional coordinates (direct lattice) 
   0.50000000  0.00000000  0.50000000
   0.00000000  0.50000000  0.00000000
   0.00000000  0.00000000  0.75000000
   0.00000000  0.00000000  0.25000000
 
 position of ions in cartesian coordinates  (Angst):
   1.52680206  0.00000000  2.68562840
   0.00000000  1.52680206  0.00000000
   0.00000000  0.00000000  4.02844259
   0.00000000  0.00000000  1.34281420
 


--------------------------------------------------------------------------------------------------------


 k-point     1 :   0.0000 0.0000 0.0000  plane waves:    1275
 k-point     2 :   0.1250 0.0000 0.0000  plane waves:    1287
 k-point     3 :   0.2500 0.0000 0.0000  plane waves:    1277
 k-point     4 :   0.3750 0.0000 0.0000  plane waves:    1281
 k-point     5 :   0.5000 0.0000 0.0000  plane waves:    1268
 k-point     6 :   0.1250 0.1250 0.0000  plane waves:    1276
 k-point     7 :   0.2500 0.1250 0.0000  plane waves:    1276
 k-point     8 :   0.3750 0.1250 0.0000  plane waves:    1276
 k-point     9 :   0.5000 0.1250 0.0000  plane waves:    1262
 k-point    10 :   0.2500 0.2500 0.0000  plane waves:    1276
 k-point    11 :   0.3750 0.2500 0.0000  plane waves:    1273
 k-point    12 :   0.5000 0.2500 0.0000  plane waves:    1264
 k-point    13 :   0.3750 0.3750 0.0000  plane waves:    1262
 k-point    14 :   0.5000 0.3750 0.0000  plane waves:    1258
 k-point    15 :   0.5000 0.5000 0.0000  plane waves:    1272
 k-point    16 :   0.0000 0.0000 0.1667  plane waves:    1279
 k-point    17 :   0.1250 0.0000 0.1667  plane waves:    1272
 k-point    18 :   0.2500 0.0000 0.1667  plane waves:    1266
 k-point    19 :   0.3750 0.0000 0.1667  plane waves:    1277
 k-point    20 :   0.5000 0.0000 0.1667  plane waves:    1268
 k-point    21 :   0.1250 0.1250 0.1667  plane waves:    1281
 k-point    22 :   0.2500 0.1250 0.1667  plane waves:    1269
 k-point    23 :   0.3750 0.1250 0.1667  plane waves:    1268
 k-point    24 :   0.5000 0.1250 0.1667  plane waves:    1266
 k-point    25 :   0.2500 0.2500 0.1667  plane waves:    1283
 k-point    26 :   0.3750 0.2500 0.1667  plane waves:    1273
 k-point    27 :   0.5000 0.2500 0.1667  plane waves:    1268
 k-point    28 :   0.3750 0.3750 0.1667  plane waves:    1262
 k-point    29 :   0.5000 0.3750 0.1667  plane waves:    1254
 k-point    30 :   0.5000 0.5000 0.1667  plane waves:    1252
 k-point    31 :   0.0000 0.0000 0.3333  plane waves:    1276
 k-point    32 :   0.1250 0.0000 0.3333  plane waves:    1277
 k-point    33 :   0.2500 0.0000 0.3333  plane waves:    1278
 k-point    34 :   0.3750 0.0000 0.3333  plane waves:    1278
 k-point    35 :   0.5000 0.0000 0.3333  plane waves:    1266
 k-point    36 :   0.1250 0.1250 0.3333  plane waves:    1283
 k-point    37 :   0.2500 0.1250 0.3333  plane waves:    1271
 k-point    38 :   0.3750 0.1250 0.3333  plane waves:    1274
 k-point    39 :   0.5000 0.1250 0.3333  plane waves:    1278
 k-point    40 :   0.2500 0.2500 0.3333  plane waves:    1270
 k-point    41 :   0.3750 0.2500 0.3333  plane waves:    1266
 k-point    42 :   0.5000 0.2500 0.3333  plane waves:    1270
 k-point    43 :   0.3750 0.3750 0.3333  plane waves:    1266
 k-point    44 :   0.5000 0.3750 0.3333  plane waves:    1260
 k-point    45 :   0.5000 0.5000 0.3333  plane waves:    1264
 k-point    46 :   0.0000 0.0000 0.5000  plane waves:    1260
 k-point    47 :   0.1250 0.0000 0.5000  plane waves:    1290
 k-point    48 :   0.2500 0.0000 0.5000  plane waves:    1284
 k-point    49 :   0.3750 0.0000 0.5000  plane waves:    1274
 k-point    50 :   0.5000 0.0000 0.5000  plane waves:    1264
 k-point    51 :   0.1250 0.1250 0.5000  plane waves:    1274
 k-point    52 :   0.2500 0.1250 0.5000  plane waves:    1272
 k-point    53 :   0.3750 0.1250 0.5000  plane waves:    1284
 k-point    54 :   0.5000 0.1250 0.5000  plane waves:    1288
 k-point    55 :   0.2500 0.2500 0.5000  plane waves:    1276
 k-point    56 :   0.3750 0.2500 0.5000  plane waves:    1266
 k-point    57 :   0.5000 0.2500 0.5000  plane waves:    1280
 k-point    58 :   0.3750 0.3750 0.5000  plane waves:    1256
 k-point    59 :   0.5000 0.3750 0.5000  plane waves:    1240
 k-point    60 :   0.5000 0.5000 0.5000  plane waves:    1256

 maximum and minimum number of plane-waves per node :      1290     1240

 maximum number of plane-waves:      1290
 maximum index in each direction: 
   IXMAX=    5   IYMAX=    5   IZMAX=    9
   IXMIN=   -6   IYMIN=   -6   IZMIN=  -10


 serial   3D FFT for wavefunctions
 parallel 3D FFT for charge:
    minimum data exchange during FFTs selected (reduces bandwidth)


 total amount of memory used by VASP MPI-rank0    83112. kBytes
=======================================================================

   base      :      30000. kBytes
   nonl-proj :      22408. kBytes
   fftplans  :       6896. kBytes
   grid      :       5621. kBytes
   one-center:        124. kBytes
   wavefun   :      18063. kBytes
 
     INWAV:  cpu time      0.0000: real time      0.0000
 Broyden mixing: mesh for mixing (old mesh)
   NGX = 11   NGY = 11   NGZ = 19
  (NGX  = 48   NGY  = 48   NGZ  = 80)
  gives a total of   2299 points

 initial charge density was supplied:
 charge density of overlapping atoms calculated
 number of electron      44.0000000 magnetization       4.0000000
 keeping initial charge density in first step


--------------------------------------------------------------------------------------------------------


 Maximum index for augmentation-charges         35753 (set IRDMAX)


--------------------------------------------------------------------------------------------------------


 First call to EWALD:  gamma=   0.481
 Maximum number of real-space cells 3x 3x 2
 Maximum number of reciprocal cells 2x 2x 4

    FEWALD:  cpu time      0.0005: real time      0.0005


--------------------------------------- Ionic step        1  -------------------------------------------




--------------------------------------- Iteration      1(   1)  ---------------------------------------


    POTLOK:  cpu time      0.1466: real time      0.1467
    SETDIJ:  cpu time      0.5002: real time      0.5004
     EDDAV:  cpu time      2.5961: real time      2.5975
       DOS:  cpu time      0.0008: real time      0.0008
    --------------------------------------------
      LOOP:  cpu time      3.2438: real time      3.2453

 eigenvalue-minimisations  :  6760
 total energy-change (2. order) : 0.4634825E+03  (-0.2736515E+04)
 number of electron      44.0000000 magnetization       4.0000000
 augmentation part       44.0000000 magnetization       4.0000000

 Free energy of the ion-electron system (eV)
  ---------------------------------------------------
  alpha Z        PSCENC =       264.60919239
  Ewald energy   TEWEN  =     -4637.17866551
  -Hartree energ DENC   =     -1556.19354633
  -exchange      EXHF   =         0.00000000
  -V(xc)+E(xc)   XCENC  =       221.00441200
  PAW double counting   =      5208.65407777    -5154.59282805
  entropy T*S    EENTRO =        -0.00175565
  eigenvalues    EBANDS =         9.37713849
  atomic energy  EATOM  =      6107.80451532
  Solvation  Ediel_sol  =         0.00000000
  ---------------------------------------------------
  free energy    TOTEN  =       463.48254043 eV

  energy without entropy =      463.48429608  energy(sigma->0) =      463.48341826


--------------------------------------------------------------------------------------------------------




--------------------------------------- Iteration      1(   2)  ---------------------------------------


     EDDAV:  cpu time      4.1079: real time      4.1088
       DOS:  cpu time      0.0006: real time      0.0006
    --------------------------------------------
      LOOP:  cpu time      4.1086: real time      4.1094

 eigenvalue-minimisations  :  7348
 total energy-change (2. order) :-0.4642259E+03  (-0.4494328E+03)
 number of electron      44.0000000 magnetization       4.0000000
 augmentation part       44.0000000 magnetization       4.0000000

 Free energy of the ion-electron system (eV)
  ---------------------------------------------------
  alpha Z        PSCENC =       264.60919239
  Ewald energy   TEWEN  =     -4637.17866551
  -Hartree energ DENC   =     -1556.19354633
  -exchange      EXHF   =         0.00000000
  -V(xc)+E(xc)   XCENC  =       221.00441200
  PAW double counting   =      5208.65407777    -5154.59282805
  entropy T*S    EENTRO =        -0.00138620
  eigenvalues    EBANDS =      -454.84908503
  atomic energy  EATOM  =      6107.80451532
  Solvation  Ediel_sol  =         0.00000000
  ---------------------------------------------------
  free energy    TOTEN  =        -0.74331363 eV

  energy without entropy =       -0.74192743  energy(sigma->0) =       -0.74262053


--------------------------------------------------------------------------------------------------------




--------------------------------------- Iteration      1(   3)  ---------------------------------------


     EDDAV:  cpu time      2.4952: real time      2.4955
       DOS:  cpu time      0.0006: real time      0.0006
    --------------------------------------------
      LOOP:  cpu time      2.4958: real time      2.4961

 eigenvalue-minimisations  :  7412
 total energy-change (2. order) :-0.2334758E+02  (-0.2304485E+02)
 number of electron      44.0000000 magnetization       4.0000000
 augmentation part       44.0000000 magnetization       4.0000000

 Free energy of the ion-electron system (eV)
  ---------------------------------------------------
  alpha Z        PSCENC =       264.60919239
  Ewald energy   TEWEN  =     -4637.17866551
  -Hartree energ DENC   =     -1556.19354633
  -exchange      EXHF   =         0.00000000
  -V(xc)+E(xc)   XCENC  =       221.00441200
  PAW double counting   =      5208.65407777    -5154.59282805
  entropy T*S    EENTRO =        -0.00205366
  eigenvalues    EBANDS =      -478.19599796
  atomic energy  EATOM  =      6107.80451532
  Solvation  Ediel_sol  =         0.00000000
  ---------------------------------------------------
  free energy    TOTEN  =       -24.09089403 eV

  energy without entropy =      -24.08884037  energy(sigma->0) =      -24.08986720


--------------------------------------------------------------------------------------------------------




--------------------------------------- Iteration      1(   4)  ---------------------------------------


     EDDAV:  cpu time      2.3975: real time      2.3978
       DOS:  cpu time      0.0006: real time      0.0006
    --------------------------------------------
      LOOP:  cpu time      2.3981: real time      2.3984

 eigenvalue-minimisations  :  7276
 total energy-change (2. order) :-0.2743481E+00  (-0.2741644E+00)
 number of electron      44.0000000 magnetization       4.0000000
 augmentation part       44.0000000 magnetization       4.0000000

 Free energy of the ion-electron system (eV)
  ---------------------------------------------------
  alpha Z        PSCENC =       264.60919239
  Ewald energy   TEWEN  =     -4637.17866551
  -Hartree energ DENC   =     -1556.19354633
  -exchange      EXHF   =         0.00000000
  -V(xc)+E(xc)   XCENC  =       221.00441200
  PAW double counting   =      5208.65407777    -5154.59282805
  entropy T*S    EENTRO =        -0.00210923
  eigenvalues    EBANDS =      -478.47029048
  atomic energy  EATOM  =      6107.80451532
  Solvation  Ediel_sol  =         0.00000000
  ---------------------------------------------------
  free energy    TOTEN  =       -24.36524211 eV

  energy without entropy =      -24.36313288  energy(sigma->0) =      -24.36418750


--------------------------------------------------------------------------------------------------------




--------------------------------------- Iteration      1(   5)  ---------------------------------------


     EDDAV:  cpu time      2.4072: real time      2.4075
       DOS:  cpu time      0.0006: real time      0.0006
    CHARGE:  cpu time      0.2403: real time      0.2403
    MIXING:  cpu time      0.0011: real time      0.0011
    --------------------------------------------
      LOOP:  cpu time      2.6491: real time      2.6494

 eigenvalue-minimisations  :  7484
 total energy-change (2. order) :-0.2809688E-02  (-0.2809450E-02)
 number of electron      44.0000001 magnetization       0.7226507
 augmentation part       16.2018741 magnetization       0.5627811

 Broyden mixing:
  rms(total) = 0.17629E+01    rms(broyden)= 0.17623E+01
  rms(prec ) = 0.26818E+01
  weight for this iteration     100.00

 Free energy of the ion-electron system (eV)
  ---------------------------------------------------
  alpha Z        PSCENC =       264.60919239
  Ewald energy   TEWEN  =     -4637.17866551
  -Hartree energ DENC   =     -1556.19354633
  -exchange      EXHF   =         0.00000000
  -V(xc)+E(xc)   XCENC  =       221.00441200
  PAW double counting   =      5208.65407777    -5154.59282805
  entropy T*S    EENTRO =        -0.00210867
  eigenvalues    EBANDS =      -478.47310072
  atomic energy  EATOM  =      6107.80451532
  Solvation  Ediel_sol  =         0.00000000
  ---------------------------------------------------
  free energy    TOTEN  =       -24.36805180 eV

  energy without entropy =      -24.36594313  energy(sigma->0) =      -24.36699746


--------------------------------------------------------------------------------------------------------




--------------------------------------- Iteration      1(   6)  ---------------------------------------


    POTLOK:  cpu time      0.0353: real time      0.0354
    SETDIJ:  cpu time      0.4057: real time      0.4057
     EDDAV:  cpu time      2.3128: real time      2.3148
       DOS:  cpu time      0.0006: real time      0.0006
    CHARGE:  cpu time      0.2371: real time      0.2371
    MIXING:  cpu time      0.0010: real time      0.0010
    --------------------------------------------
      LOOP:  cpu time      2.9925: real time      2.9945

 eigenvalue-minimisations  :  7036
 total energy-change (2. order) : 0.1627042E+01  (-0.1553885E+01)
 number of electron      44.0000001 magnetization       0.2489108
 augmentation part       16.8360564 magnetization       0.1917505

 Broyden mixing:
  rms(total) = 0.71260E+00    rms(broyden)= 0.71203E+00
  rms(prec ) = 0.12166E+01
  weight for this iteration     100.00

 eigenvalues of (default mixing * dielectric matrix)
  average eigenvalue GAMMA=   0.8344
  0.8344

 Free energy of the ion-electron system (eV)
  ---------------------------------------------------
  alpha Z        PSCENC =       264.60919239
  Ewald energy   TEWEN  =     -4637.17866551
  -Hartree energ DENC   =     -1525.95766735
  -exchange      EXHF   =         0.00000000
  -V(xc)+E(xc)   XCENC  =       220.35050647
  PAW double counting   =      5343.22458155    -5295.03625758
  entropy T*S    EENTRO =        -0.00040244
  eigenvalues    EBANDS =      -500.55681225
  atomic energy  EATOM  =      6107.80451532
  Solvation  Ediel_sol  =         0.00000000
  ---------------------------------------------------
  free energy    TOTEN  =       -22.74100940 eV

  energy without entropy =      -22.74060695  energy(sigma->0) =      -22.74080817


--------------------------------------------------------------------------------------------------------




--------------------------------------- Iteration      1(   7)  ---------------------------------------


    POTLOK:  cpu time      0.0339: real time      0.0340
    SETDIJ:  cpu time      0.4034: real time      0.4036
     EDDAV:  cpu time      2.3121: real time      2.3129
       DOS:  cpu time      0.0006: real time      0.0006
    CHARGE:  cpu time      0.2328: real time      0.2328
    MIXING:  cpu time      0.0013: real time      0.0013
    --------------------------------------------
      LOOP:  cpu time      2.9841: real time      2.9851

 eigenvalue-minimisations  :  7076
 total energy-change (2. order) : 0.5534754E+00  (-0.2539514E+00)
 number of electron      44.0000001 magnetization      -0.0673118
 augmentation part       16.5224917 magnetization      -0.0979874

 Broyden mixing:
  rms(total) = 0.36643E+00    rms(broyden)= 0.36639E+00
  rms(prec ) = 0.44135E+00
  weight for this iteration     100.00

 eigenvalues of (default mixing * dielectric matrix)
  average eigenvalue GAMMA=   0.8937
  1.0940  0.6933

 Free energy of the ion-electron system (eV)
  ---------------------------------------------------
  alpha Z        PSCENC =       264.60919239
  Ewald energy   TEWEN  =     -4637.17866551
  -Hartree energ DENC   =     -1539.27372745
  -exchange      EXHF   =         0.00000000
  -V(xc)+E(xc)   XCENC  =       220.55572478
  PAW double counting   =      5462.35086784    -5413.54240876
  entropy T*S    EENTRO =        -0.00056158
  eigenvalues    EBANDS =      -487.51247107
  atomic energy  EATOM  =      6107.80451532
  Solvation  Ediel_sol  =         0.00000000
  ---------------------------------------------------
  free energy    TOTEN  =       -22.18753403 eV

  energy without entropy =      -22.18697245  energy(sigma->0) =      -22.18725324


--------------------------------------------------------------------------------------------------------




--------------------------------------- Iteration      1(   8)  ---------------------------------------


    POTLOK:  cpu time      0.0335: real time      0.0336
    SETDIJ:  cpu time      0.4010: real time      0.4010
     EDDAV:  cpu time      2.3560: real time      2.3571
       DOS:  cpu time      0.0006: real time      0.0006
    CHARGE:  cpu time      0.2355: real time      0.2355
    MIXING:  cpu time      0.0011: real time      0.0011
    --------------------------------------------
      LOOP:  cpu time      3.0277: real time      3.0289

 eigenvalue-minimisations  :  7136
 total energy-change (2. order) :-0.1869746E-01  (-0.4098637E-01)
 number of electron      44.0000001 magnetization      -0.0560543
 augmentation part       16.5686782 magnetization      -0.0519264

 Broyden mixing:
  rms(total) = 0.15064E+00    rms(broyden)= 0.15061E+00
  rms(prec ) = 0.19238E+00
  weight for this iteration     100.00

 eigenvalues of (default mixing * dielectric matrix)
  average eigenvalue GAMMA=   1.1648
  0.7224  0.9778  1.7942

 Free energy of the ion-electron system (eV)
  ---------------------------------------------------
  alpha Z        PSCENC =       264.60919239
  Ewald energy   TEWEN  =     -4637.17866551
  -Hartree energ DENC   =     -1535.10337846
  -exchange      EXHF   =         0.00000000
  -V(xc)+E(xc)   XCENC  =       220.37648086
  PAW double counting   =      5596.01359729    -5548.34514760
  entropy T*S    EENTRO =        -0.00132357
  eigenvalues    EBANDS =      -490.38150220
  atomic energy  EATOM  =      6107.80451532
  Solvation  Ediel_sol  =         0.00000000
  ---------------------------------------------------
  free energy    TOTEN  =       -22.20623149 eV

  energy without entropy =      -22.20490792  energy(sigma->0) =      -22.20556971


--------------------------------------------------------------------------------------------------------




--------------------------------------- Iteration      1(   9)  ---------------------------------------


    POTLOK:  cpu time      0.0337: real time      0.0338
    SETDIJ:  cpu time      0.4029: real time      0.4030
     EDDAV:  cpu time      2.3697: real time      2.3718
       DOS:  cpu time      0.0006: real time      0.0006
    CHARGE:  cpu time      0.2365: real time      0.2365
    MIXING:  cpu time      0.0010: real time      0.0010
    --------------------------------------------
      LOOP:  cpu time      3.0444: real time      3.0466

 eigenvalue-minimisations  :  7320
 total energy-change (2. order) : 0.4461141E-02  (-0.2412656E-02)
 number of electron      44.0000001 magnetization      -0.0133487
 augmentation part       16.5747167 magnetization      -0.0049545

 Broyden mixing:
  rms(total) = 0.44216E-01    rms(broyden)= 0.44207E-01
  rms(prec ) = 0.52408E-01
  weight for this iteration     100.00

 eigenvalues of (default mixing * dielectric matrix)
  average eigenvalue GAMMA=   1.1531
  2.1904  0.9190  0.7516  0.7516

 Free energy of the ion-electron system (eV)
  ---------------------------------------------------
  alpha Z        PSCENC =       264.60919239
  Ewald energy   TEWEN  =     -4637.17866551
  -Hartree energ DENC   =     -1536.05457123
  -exchange      EXHF   =         0.00000000
  -V(xc)+E(xc)   XCENC  =       220.47284253
  PAW double counting   =      5678.15778956    -5631.00200901
  entropy T*S    EENTRO =        -0.00143514
  eigenvalues    EBANDS =      -489.00942925
  atomic energy  EATOM  =      6107.80451532
  Solvation  Ediel_sol  =         0.00000000
  ---------------------------------------------------
  free energy    TOTEN  =       -22.20177035 eV

  energy without entropy =      -22.20033521  energy(sigma->0) =      -22.20105278


--------------------------------------------------------------------------------------------------------




--------------------------------------- Iteration      1(  10)  ---------------------------------------


    POTLOK:  cpu time      0.0341: real time      0.0342
    SETDIJ:  cpu time      0.4056: real time      0.4056
     EDDAV:  cpu time      2.3274: real time      2.3279
       DOS:  cpu time      0.0005: real time      0.0005
    CHARGE:  cpu time      0.2352: real time      0.2352
    MIXING:  cpu time      0.0010: real time      0.0010
    --------------------------------------------
      LOOP:  cpu time      3.0038: real time      3.0044

 eigenvalue-minimisations  :  7132
 total energy-change (2. order) :-0.1400640E-02  (-0.2599076E-03)
 number of electron      44.0000001 magnetization       0.0043135
 augmentation part       16.5684910 magnetization       0.0055561

 Broyden mixing:
  rms(total) = 0.17609E-01    rms(broyden)= 0.17608E-01
  rms(prec ) = 0.20353E-01
  weight for this iteration     100.00

 eigenvalues of (default mixing * dielectric matrix)
  average eigenvalue GAMMA=   1.1868
  2.4848  1.0264  1.0264  0.6983  0.6983

 Free energy of the ion-electron system (eV)
  ---------------------------------------------------
  alpha Z        PSCENC =       264.60919239
  Ewald energy   TEWEN  =     -4637.17866551
  -Hartree energ DENC   =     -1536.56117103
  -exchange      EXHF   =         0.00000000
  -V(xc)+E(xc)   XCENC  =       220.49094424
  PAW double counting   =      5706.71866396    -5659.60130059
  entropy T*S    EENTRO =        -0.00145797
  eigenvalues    EBANDS =      -488.48389180
  atomic energy  EATOM  =      6107.80451532
  Solvation  Ediel_sol  =         0.00000000
  ---------------------------------------------------
  free energy    TOTEN  =       -22.20317099 eV

  energy without entropy =      -22.20171302  energy(sigma->0) =      -22.20244200


--------------------------------------------------------------------------------------------------------




--------------------------------------- Iteration      1(  11)  ---------------------------------------


    POTLOK:  cpu time      0.0341: real time      0.0342
    SETDIJ:  cpu time      0.4028: real time      0.4029
     EDDAV:  cpu time      2.3491: real time      2.3496
       DOS:  cpu time      0.0005: real time      0.0005
    CHARGE:  cpu time      0.2371: real time      0.2371
    MIXING:  cpu time      0.0011: real time      0.0011
    --------------------------------------------
      LOOP:  cpu time      3.0248: real time      3.0254

 eigenvalue-minimisations  :  7380
 total energy-change (2. order) :-0.1888595E-03  (-0.3609133E-04)
 number of electron      44.0000001 magnetization       0.0027719
 augmentation part       16.5682945 magnetization       0.0029156

 Broyden mixing:
  rms(total) = 0.86642E-02    rms(broyden)= 0.86636E-02
  rms(prec ) = 0.10132E-01
  weight for this iteration     100.00

 eigenvalues of (default mixing * dielectric matrix)
  average eigenvalue GAMMA=   1.1768
  2.4543  1.3599  1.0303  0.7922  0.7922  0.6320

 Free energy of the ion-electron system (eV)
  ---------------------------------------------------
  alpha Z        PSCENC =       264.60919239
  Ewald energy   TEWEN  =     -4637.17866551
  -Hartree energ DENC   =     -1536.69876233
  -exchange      EXHF   =         0.00000000
  -V(xc)+E(xc)   XCENC  =       220.49470351
  PAW double counting   =      5715.06897583    -5667.92750544
  entropy T*S    EENTRO =        -0.00143690
  eigenvalues    EBANDS =      -488.37437672
  atomic energy  EATOM  =      6107.80451532
  Solvation  Ediel_sol  =         0.00000000
  ---------------------------------------------------
  free energy    TOTEN  =       -22.20335985 eV

  energy without entropy =      -22.20192295  energy(sigma->0) =      -22.20264140


--------------------------------------------------------------------------------------------------------




--------------------------------------- Iteration      1(  12)  ---------------------------------------


    POTLOK:  cpu time      0.0335: real time      0.0336
    SETDIJ:  cpu time      0.4005: real time      0.4005
     EDDAV:  cpu time      2.3136: real time      2.3140
       DOS:  cpu time      0.0005: real time      0.0005
    CHARGE:  cpu time      0.2354: real time      0.2354
    MIXING:  cpu time      0.0011: real time      0.0011
    --------------------------------------------
      LOOP:  cpu time      2.9847: real time      2.9853

 eigenvalue-minimisations  :  7216
 total energy-change (2. order) :-0.1127367E-04  (-0.5191007E-05)
 number of electron      44.0000001 magnetization      -0.0002129
 augmentation part       16.5685005 magnetization      -0.0004803

 Broyden mixing:
  rms(total) = 0.20854E-02    rms(broyden)= 0.20849E-02
  rms(prec ) = 0.28797E-02
  weight for this iteration     100.00

 eigenvalues of (default mixing * dielectric matrix)
  average eigenvalue GAMMA=   1.2068
  2.4859  1.7695  1.0186  1.0186  0.7638  0.7638  0.6279

 Free energy of the ion-electron system (eV)
  ---------------------------------------------------
  alpha Z        PSCENC =       264.60919239
  Ewald energy   TEWEN  =     -4637.17866551
  -Hartree energ DENC   =     -1536.79151226
  -exchange      EXHF   =         0.00000000
  -V(xc)+E(xc)   XCENC  =       220.49800497
  PAW double counting   =      5718.50074425    -5671.33256324
  entropy T*S    EENTRO =        -0.00141753
  eigenvalues    EBANDS =      -488.31166951
  atomic energy  EATOM  =      6107.80451532
  Solvation  Ediel_sol  =         0.00000000
  ---------------------------------------------------
  free energy    TOTEN  =       -22.20337112 eV

  energy without entropy =      -22.20195359  energy(sigma->0) =      -22.20266236


--------------------------------------------------------------------------------------------------------




--------------------------------------- Iteration      1(  13)  ---------------------------------------


    POTLOK:  cpu time      0.0338: real time      0.0339
    SETDIJ:  cpu time      0.4039: real time      0.4040
     EDDAV:  cpu time      2.3130: real time      2.3135
       DOS:  cpu time      0.0006: real time      0.0006
    CHARGE:  cpu time      0.2376: real time      0.2376
    MIXING:  cpu time      0.0012: real time      0.0012
    --------------------------------------------
      LOOP:  cpu time      2.9901: real time      2.9908

 eigenvalue-minimisations  :  7168
 total energy-change (2. order) :-0.1003604E-04  (-0.1331749E-05)
 number of electron      44.0000001 magnetization      -0.0001449
 augmentation part       16.5684843 magnetization      -0.0002675

 Broyden mixing:
  rms(total) = 0.84425E-03    rms(broyden)= 0.84409E-03
  rms(prec ) = 0.11587E-02
  weight for this iteration     100.00

 eigenvalues of (default mixing * dielectric matrix)
  average eigenvalue GAMMA=   1.2140
  2.5842  2.0254  1.1104  1.1104  0.7716  0.7716  0.7116  0.6272

 Free energy of the ion-electron system (eV)
  ---------------------------------------------------
  alpha Z        PSCENC =       264.60919239
  Ewald energy   TEWEN  =     -4637.17866551
  -Hartree energ DENC   =     -1536.84517576
  -exchange      EXHF   =         0.00000000
  -V(xc)+E(xc)   XCENC  =       220.50021368
  PAW double counting   =      5719.14199776    -5671.96080430
  entropy T*S    EENTRO =        -0.00141294
  eigenvalues    EBANDS =      -488.27324180
  atomic energy  EATOM  =      6107.80451532
  Solvation  Ediel_sol  =         0.00000000
  ---------------------------------------------------
  free energy    TOTEN  =       -22.20338116 eV

  energy without entropy =      -22.20196821  energy(sigma->0) =      -22.20267469


--------------------------------------------------------------------------------------------------------




--------------------------------------- Iteration      1(  14)  ---------------------------------------


    POTLOK:  cpu time      0.0340: real time      0.0341
    SETDIJ:  cpu time      0.4091: real time      0.4091
     EDDAV:  cpu time      1.8555: real time      1.8556
       DOS:  cpu time      0.0005: real time      0.0005
    CHARGE:  cpu time      0.2353: real time      0.2356
    MIXING:  cpu time      0.0012: real time      0.0012
    --------------------------------------------
      LOOP:  cpu time      2.5356: real time      2.5361

 eigenvalue-minimisations  :  5084
 total energy-change (2. order) :-0.1417378E-05  (-0.1712430E-06)
 number of electron      44.0000001 magnetization       0.0000627
 augmentation part       16.5684670 magnetization       0.0000832

 Broyden mixing:
  rms(total) = 0.33227E-03    rms(broyden)= 0.33223E-03
  rms(prec ) = 0.53705E-03
  weight for this iteration     100.00

 eigenvalues of (default mixing * dielectric matrix)
  average eigenvalue GAMMA=   1.2249
  2.5903  2.0856  1.2694  1.0956  1.0956  0.7835  0.7835  0.6966  0.6238

 Free energy of the ion-electron system (eV)
  ---------------------------------------------------
  alpha Z        PSCENC =       264.60919239
  Ewald energy   TEWEN  =     -4637.17866551
  -Hartree energ DENC   =     -1536.86157088
  -exchange      EXHF   =         0.00000000
  -V(xc)+E(xc)   XCENC  =       220.50085566
  PAW double counting   =      5719.08802024    -5671.90303405
  entropy T*S    EENTRO =        -0.00141333
  eigenvalues    EBANDS =      -488.26128242
  atomic energy  EATOM  =      6107.80451532
  Solvation  Ediel_sol  =         0.00000000
  ---------------------------------------------------
  free energy    TOTEN  =       -22.20338258 eV

  energy without entropy =      -22.20196925  energy(sigma->0) =      -22.20267591


--------------------------------------------------------------------------------------------------------




--------------------------------------- Iteration      1(  15)  ---------------------------------------


    POTLOK:  cpu time      0.0335: real time      0.0336
    SETDIJ:  cpu time      0.4035: real time      0.4035
     EDDAV:  cpu time      1.6944: real time      1.6949
       DOS:  cpu time      0.0006: real time      0.0006
    --------------------------------------------
      LOOP:  cpu time      2.1321: real time      2.1327

 eigenvalue-minimisations  :  4276
 total energy-change (2. order) :-0.2212814E-06  (-0.5528695E-07)
 number of electron      44.0000001 magnetization       0.0000627
 augmentation part       16.5684670 magnetization       0.0000832

 Free energy of the ion-electron system (eV)
  ---------------------------------------------------
  alpha Z        PSCENC =       264.60919239
  Ewald energy   TEWEN  =     -4637.17866551
  -Hartree energ DENC   =     -1536.86801026
  -exchange      EXHF   =         0.00000000
  -V(xc)+E(xc)   XCENC  =       220.50106910
  PAW double counting   =      5718.89705840    -5671.71080090
  entropy T*S    EENTRO =        -0.00141477
  eigenvalues    EBANDS =      -488.25632657
  atomic energy  EATOM  =      6107.80451532
  Solvation  Ediel_sol  =         0.00000000
  ---------------------------------------------------
  free energy    TOTEN  =       -22.20338280 eV

  energy without entropy =      -22.20196802  energy(sigma->0) =      -22.20267541


--------------------------------------------------------------------------------------------------------




 average (electrostatic) potential at core
  the test charge radii are     1.0504  0.7215
  (the norm of the test charge is              1.0000)
       1 -77.8253       2 -77.8253       3 -70.0152       4 -70.0152
 
 
 
 E-fermi :   6.9040     XC(G=0): -11.8671     alpha+bet :-12.7273

 val. band max:        6.8985801531   @ k =   0.5000   0.2500   0.0000
 cond. band min:       6.9409308992   @ k =   0.5000   0.5000   0.3333
 fundamental gap:      0.0423507461
 Fermi energy:         6.9040369712

 spin component 1

 k-point     1 :       0.0000    0.0000    0.0000
  band No.  band energies     occupation 
      1     -43.9605      1.00000
      2     -43.9605      1.00000
      3     -43.9533      1.00000
      4     -43.9041      1.00000
      5     -43.1250      1.00000
      6     -43.1250      1.00000
      7     -13.4000      1.00000
      8     -12.1776      1.00000
      9      -1.9379      1.00000
     10       0.0006      1.00000
     11       0.0006      1.00000
     12       2.6117      1.00000
     13       2.8173      1.00000
     14       2.8173      1.00000
     15       3.1524      1.00000
     16       3.3490      1.00000
     17       3.6099      1.00000
     18       4.9133      1.00000
     19       4.9133      1.00000
     20       4.9686      1.00000
     21       5.1858      1.00000
     22       5.8398      1.00000
     23       8.7932      0.00000
     24       8.7932      0.00000
     25       9.0090      0.00000
     26      12.3681      0.00000
     27      15.2231      0.00000
     28      21.4429      0.00000

 k-point     2 :       0.1250    0.0000    0.0000
  band No.  band energies     occupation 
      1     -43.9731      1.00000
      2     -43.9598      1.00000
      3     -43.9502      1.00000
      4     -43.9046      1.00000
      5     -43.1345      1.00000
      6     -43.1242      1.00000
      7     -13.3212      1.00000
      8     -12.2094      1.00000
      9      -1.7733      1.00000
     10       0.0128      1.00000
     11       0.0453      1.00000
     12       1.8711      1.00000
     13       2.6734      1.00000
     14       2.8663      1.00000
     15       3.2407      1.00000
     16       3.7272      1.00000
     17       3.7526      1.00000
     18       4.9061      1.00000
     19       4.9228      1.00000
     20       4.9274      1.00000
     21       5.2673      1.00000
     22       5.8703      1.00000
     23       8.5830      0.00000
     24       8.7320      0.00000
     25       9.3781      0.00000
     26      12.9329      0.00000
     27      14.9055      0.00000
     28      19.5345      0.00000

 k-point     3 :       0.2500    0.0000    0.0000
  band No.  band energies     occupation 
      1     -44.0032      1.00000
      2     -43.9581      1.00000
      3     -43.9417      1.00000
      4     -43.9067      1.00000
      5     -43.1573      1.00000
      6     -43.1221      1.00000
      7     -13.1253      1.00000
      8     -12.2857      1.00000
      9      -1.3563      1.00000
     10       0.1267      1.00000
     11       0.1570      1.00000
     12       0.8156      1.00000
     13       2.3746      1.00000
     14       2.7283      1.00000
     15       3.1190      1.00000
     16       4.0129      1.00000
     17       4.5249      1.00000
     18       4.7228      1.00000
     19       4.8850      1.00000
     20       5.1415      1.00000
     21       5.5168      1.00000
     22       5.9328      1.00000
     23       8.2552      0.00000
     24       8.5843      0.00000
     25      10.2229      0.00000
     26      13.9929      0.00000
     27      14.2712      0.00000
     28      17.1194      0.00000

 k-point     4 :       0.3750    0.0000    0.0000
  band No.  band energies     occupation 
      1     -44.0333      1.00000
      2     -43.9564      1.00000
      3     -43.9310      1.00000
      4     -43.9110      1.00000
      5     -43.1800      1.00000
      6     -43.1201      1.00000
      7     -12.9211      1.00000
      8     -12.3617      1.00000
      9      -0.9045      1.00000
     10      -0.0045      1.00000
     11       0.2744      1.00000
     12       0.4455      1.00000
     13       1.9496      1.00000
     14       2.1195      1.00000
     15       3.4437      1.00000
     16       4.2880      1.00000
     17       4.5176      1.00000
     18       4.8576      1.00000
     19       5.0397      1.00000
     20       5.3999      1.00000
     21       5.7430      1.00000
     22       6.2597      1.00000
     23       8.1059      0.00000
     24       8.4372      0.00000
     25      11.0722      0.00000
     26      12.9885      0.00000
     27      14.9839      0.00000
     28      15.9487      0.00000

 k-point     5 :       0.5000    0.0000    0.0000
  band No.  band energies     occupation 
      1     -44.0457      1.00000
      2     -43.9557      1.00000
      3     -43.9234      1.00000
      4     -43.9159      1.00000
      5     -43.1894      1.00000
      6     -43.1192      1.00000
      7     -12.8339      1.00000
      8     -12.3929      1.00000
      9      -0.6920      1.00000
     10      -0.3273      1.00000
     11       0.3250      1.00000
     12       0.8102      1.00000
     13       1.3969      1.00000
     14       2.0227      1.00000
     15       3.6187      1.00000
     16       4.4044      1.00000
     17       4.4347      1.00000
     18       4.8440      1.00000
     19       5.0906      1.00000
     20       5.4887      1.00000
     21       5.8299      1.00000
     22       6.6146      1.00000
     23       8.0930      0.00000
     24       8.3767      0.00000
     25      11.3281      0.00000
     26      13.0259      0.00000
     27      13.6595      0.00000
     28      17.2908      0.00000

 k-point     6 :       0.1250    0.1250    0.0000
  band No.  band energies     occupation 
      1     -43.9743      1.00000
      2     -43.9703      1.00000
      3     -43.9471      1.00000
      4     -43.9051      1.00000
      5     -43.1345      1.00000
      6     -43.1327      1.00000
      7     -13.2424      1.00000
      8     -12.2406      1.00000
      9      -1.6042      1.00000
     10      -0.0606      1.00000
     11       0.1761      1.00000
     12       1.8164      1.00000
     13       1.8527      1.00000
     14       3.2096      1.00000
     15       3.2885      1.00000
     16       3.8721      1.00000
     17       3.9520      1.00000
     18       4.6891      1.00000
     19       4.9477      1.00000
     20       5.0819      1.00000
     21       5.2474      1.00000
     22       5.9157      1.00000
     23       8.3689      0.00000
     24       8.6851      0.00000
     25       9.7297      0.00000
     26      13.4680      0.00000
     27      14.6920      0.00000
     28      19.5402      0.00000

 k-point     7 :       0.2500    0.1250    0.0000
  band No.  band energies     occupation 
      1     -44.0029      1.00000
      2     -43.9702      1.00000
      3     -43.9390      1.00000
      4     -43.9067      1.00000
      5     -43.1565      1.00000
      6     -43.1314      1.00000
      7     -13.0473      1.00000
      8     -12.3159      1.00000
      9      -1.1741      1.00000
     10      -0.0431      1.00000
     11       0.3833      1.00000
     12       0.7836      1.00000
     13       1.7177      1.00000
     14       2.8282      1.00000
     15       3.5042      1.00000
     16       4.1429      1.00000
     17       4.5269      1.00000
     18       4.6189      1.00000
     19       4.8215      1.00000
     20       5.2210      1.00000
     21       5.4820      1.00000
     22       5.9530      1.00000
     23       7.9832      0.00000
     24       8.6064      0.00000
     25      10.5283      0.00000
     26      14.0117      0.00000
     27      14.7549      0.00000
     28      17.3485      0.00000

 k-point     8 :       0.3750    0.1250    0.0000
  band No.  band energies     occupation 
      1     -44.0328      1.00000
      2     -43.9685      1.00000
      3     -43.9288      1.00000
      4     -43.9106      1.00000
      5     -43.1791      1.00000
      6     -43.1293      1.00000
      7     -12.8436      1.00000
      8     -12.3912      1.00000
      9      -0.7065      1.00000
     10      -0.0287      1.00000
     11       0.0867      1.00000
     12       0.6701      1.00000
     13       1.5805      1.00000
     14       2.1287      1.00000
     15       3.7390      1.00000
     16       4.3595      1.00000
     17       4.5628      1.00000
     18       4.6505      1.00000
[...]
      9      -0.4692      1.00000
     10      -0.4692      1.00000
     11       1.0800      1.00000
     12       1.0800      1.00000
     13       1.3040      1.00000
     14       1.3040      1.00000
     15       4.2558      1.00000
     16       4.2558      1.00000
     17       4.4256      1.00000
     18       4.4256      1.00000
     19       5.3178      1.00000
     20       5.3178      1.00000
     21       5.5945      1.00000
     22       5.5945      1.00000
     23       7.7334      0.00000
     24       7.7334      0.00000
     25      12.4276      0.00000
     26      12.4276      0.00000
     27      18.6948      0.00000
     28      18.6948      0.00000

 k-point    56 :       0.3750    0.2500    0.5000
  band No.  band energies     occupation 
      1     -44.0317      1.00000
      2     -43.9990      1.00000
      3     -43.9165      1.00000
      4     -43.9150      1.00000
      5     -43.1765      1.00000
      6     -43.1518      1.00000
      7     -12.6822      1.00000
      8     -12.4295      1.00000
      9      -0.4037      1.00000
     10      -0.2684      1.00000
     11       0.2954      1.00000
     12       1.0341      1.00000
     13       1.3953      1.00000
     14       1.6929      1.00000
     15       4.0486      1.00000
     16       4.2426      1.00000
     17       4.4654      1.00000
     18       4.5727      1.00000
     19       5.0978      1.00000
     20       5.2755      1.00000
     21       5.7242      1.00000
     22       6.2034      1.00000
     23       7.6797      0.00000
     24       8.0379      0.00000
     25      12.0654      0.00000
     26      12.9412      0.00000
     27      16.9486      0.00000
     28      17.8324      0.00000

 k-point    57 :       0.5000    0.2500    0.5000
  band No.  band energies     occupation 
      1     -44.0441      1.00000
      2     -43.9979      1.00000
      3     -43.9157      1.00000
      4     -43.9134      1.00000
      5     -43.1858      1.00000
      6     -43.1509      1.00000
      7     -12.7049      1.00000
      8     -12.3447      1.00000
      9      -0.2617      1.00000
     10      -0.1844      1.00000
     11      -0.0296      1.00000
     12       0.7694      1.00000
     13       1.5497      1.00000
     14       1.9400      1.00000
     15       3.9279      1.00000
     16       4.1414      1.00000
     17       4.5891      1.00000
     18       4.7365      1.00000
     19       4.8732      1.00000
     20       5.0846      1.00000
     21       5.7851      1.00000
     22       6.5775      1.00000
     23       7.9785      0.00000
     24       8.1382      0.00000
     25      11.6138      0.00000
     26      13.2369      0.00000
     27      16.1854      0.00000
     28      17.3088      0.00000

 k-point    58 :       0.3750    0.3750    0.5000
  band No.  band energies     occupation 
      1     -44.0288      1.00000
      2     -44.0288      1.00000
      3     -43.9130      1.00000
      4     -43.9130      1.00000
      5     -43.1743      1.00000
      6     -43.1743      1.00000
      7     -12.4915      1.00000
      8     -12.4915      1.00000
      9      -0.0941      1.00000
     10      -0.0941      1.00000
     11       0.6043      1.00000
     12       0.6043      1.00000
     13       1.1479      1.00000
     14       1.1479      1.00000
     15       4.0206      1.00000
     16       4.0206      1.00000
     17       4.7416      1.00000
     18       4.7416      1.00000
     19       5.2595      1.00000
     20       5.2595      1.00000
     21       6.3294      1.00000
     22       6.3294      1.00000
     23       7.7605      0.00000
     24       7.7605      0.00000
     25      12.3832      0.00000
     26      12.3832      0.00000
     27      18.3090      0.00000
     28      18.3090      0.00000

 k-point    59 :       0.5000    0.3750    0.5000
  band No.  band energies     occupation 
      1     -44.0411      1.00000
      2     -44.0276      1.00000
      3     -43.9122      1.00000
      4     -43.9115      1.00000
      5     -43.1835      1.00000
      6     -43.1733      1.00000
      7     -12.5173      1.00000
      8     -12.4102      1.00000
      9       0.0156      1.00000
     10       0.2533      1.00000
     11       0.2888      1.00000
     12       0.5732      1.00000
     13       0.7957      1.00000
     14       1.2625      1.00000
     15       3.9220      1.00000
     16       3.9278      1.00000
     17       4.9063      1.00000
     18       4.9326      1.00000
     19       5.0841      1.00000
     20       5.2519      1.00000
     21       6.4092      1.00000
     22       6.7709      0.99992
     23       7.7488      0.00000
     24       7.7656      0.00000
     25      11.9728      0.00000
     26      12.5466      0.00000
     27      17.7429      0.00000
     28      18.2630      0.00000

 k-point    60 :       0.5000    0.5000    0.5000
  band No.  band energies     occupation 
      1     -44.0399      1.00000
      2     -44.0399      1.00000
      3     -43.9107      1.00000
      4     -43.9107      1.00000
      5     -43.1826      1.00000
      6     -43.1826      1.00000
      7     -12.4379      1.00000
      8     -12.4379      1.00000
      9       0.4385      1.00000
     10       0.4385      1.00000
     11       0.4967      1.00000
     12       0.4967      1.00000
     13       0.5660      1.00000
     14       0.5660      1.00000
     15       3.8335      1.00000
     16       3.8335      1.00000
     17       4.9614      1.00000
     18       4.9614      1.00000
     19       5.3293      1.00000
     20       5.3293      1.00000
     21       6.8396      0.96575
     22       6.8396      0.96575
     23       7.6273      0.00000
     24       7.6273      0.00000
     25      12.1459      0.00000
     26      12.1459      0.00000
     27      18.5676      0.00000
     28      18.5676      0.00000


--------------------------------------------------------------------------------------------------------


 soft charge-density along one line, spin component            1
         0         1         2         3         4         5         6         7         8         9
 total charge-density along one line
 
 soft charge-density along one line, spin component            2
         0         1         2         3         4         5         6         7         8         9
 total charge-density along one line
 
 pseudopotential strength for first ion, spin component:            1
-38.790  -0.000  -0.000   9.102   0.000   0.000   0.000  -0.000
 -0.000 -39.201  -0.000   0.000   9.335   0.000  -0.000   0.000
 -0.000  -0.000 -39.228   0.000   0.000   9.353   0.000  -0.000
  9.102   0.000   0.000   7.646  -0.000  -0.000  -0.000   0.000
  0.000   9.335   0.000  -0.000   7.591  -0.000   0.000  -0.000
  0.000   0.000   9.353  -0.000  -0.000   7.589  -0.000   0.000
  0.000  -0.000   0.000  -0.000   0.000  -0.000  -3.751  -0.000
 -0.000   0.000  -0.000   0.000  -0.000   0.000  -0.000  -3.730
  0.000  -0.000  -0.000  -0.000   0.000   0.000   0.000   0.000
 -0.000   0.000  -0.000   0.000  -0.000   0.000  -0.000   0.000
  0.000  -0.000   0.000  -0.000   0.000  -0.000  -0.000   0.000
  0.000  -0.000   0.000  -0.000   0.000  -0.000  -3.563  -0.000
 -0.000   0.000  -0.000   0.000  -0.000   0.000  -0.000  -3.539
  0.000  -0.000  -0.000  -0.000   0.000   0.000   0.000   0.000
 -0.000   0.000  -0.000   0.000  -0.000   0.000  -0.000   0.000
  0.000  -0.000   0.000  -0.000   0.000  -0.000  -0.000   0.000
 -0.000   0.000  -0.000   0.000   0.000  -0.000   0.000   0.000
 -0.000   0.000  -0.000   0.000   0.000  -0.000   0.000   0.000
 pseudopotential strength for first ion, spin component:            2
-38.790  -0.000  -0.000   9.102   0.000   0.000   0.000  -0.000
 -0.000 -39.201  -0.000   0.000   9.335   0.000  -0.000   0.000
 -0.000  -0.000 -39.228   0.000   0.000   9.353   0.000  -0.000
  9.102   0.000   0.000   7.646  -0.000  -0.000  -0.000   0.000
  0.000   9.335   0.000  -0.000   7.591  -0.000   0.000  -0.000
  0.000   0.000   9.353  -0.000  -0.000   7.589  -0.000   0.000
  0.000  -0.000   0.000  -0.000   0.000  -0.000  -3.751  -0.000
 -0.000   0.000  -0.000   0.000  -0.000   0.000  -0.000  -3.730
  0.000  -0.000  -0.000   0.000   0.000   0.000   0.000   0.000
 -0.000   0.000  -0.000   0.000  -0.000   0.000  -0.000   0.000
  0.000  -0.000   0.000  -0.000   0.000  -0.000  -0.000   0.000
  0.000  -0.000   0.000  -0.000   0.000  -0.000  -3.563  -0.000
 -0.000   0.000  -0.000   0.000  -0.000   0.000  -0.000  -3.539
  0.000  -0.000  -0.000  -0.000   0.000   0.000   0.000   0.000
 -0.000   0.000  -0.000   0.000  -0.000   0.000  -0.000   0.000
  0.000  -0.000   0.000  -0.000   0.000  -0.000  -0.000   0.000
 -0.000   0.000  -0.000   0.000   0.000  -0.000   0.000   0.000
 -0.000   0.000  -0.000   0.000   0.000  -0.000   0.000   0.000
 total augmentation occupancy for first ion, spin component:            1
  1.998   0.000   0.000  -0.011  -0.000  -0.000   0.000   0.000   0.000   0.000   0.000   0.000   0.000   0.000   0.000   0.000
  0.000   1.998   0.000  -0.000  -0.020  -0.000   0.000   0.000   0.000   0.000   0.000   0.000   0.000   0.000   0.000   0.000
  0.000   0.000   1.998  -0.000  -0.000  -0.021   0.000   0.000   0.000   0.000   0.000   0.000   0.000   0.000   0.000   0.000
 -0.011  -0.000  -0.000   0.045   0.000   0.000   0.000   0.000   0.000   0.000   0.000   0.000   0.000   0.000   0.000   0.000
 -0.000  -0.020  -0.000   0.000   0.134   0.000   0.000   0.000   0.000   0.000   0.000   0.000   0.000   0.000   0.000   0.000
 -0.000  -0.000  -0.021   0.000   0.000   0.159   0.000   0.000   0.000   0.000   0.000   0.000   0.000   0.000   0.000   0.000
  0.000   0.000   0.000   0.000   0.000   0.000   2.216   0.000  -0.000   0.000  -0.000  -0.322  -0.000   0.000  -0.000   0.000
  0.000   0.000   0.000   0.000   0.000   0.000   0.000   2.150   0.000   0.000  -0.000  -0.000  -0.277   0.000  -0.000   0.000
  0.000   0.000   0.000   0.000   0.000   0.000  -0.000   0.000   2.376   0.000   0.169   0.000   0.000  -0.545  -0.000  -0.115
  0.000   0.000   0.000   0.000   0.000   0.000   0.000   0.000   0.000   4.851   0.000  -0.000  -0.000  -0.000  -2.781  -0.000
  0.000   0.000   0.000   0.000   0.000   0.000  -0.000  -0.000   0.169   0.000   3.103   0.000   0.000  -0.110  -0.000  -1.167
  0.000   0.000   0.000   0.000   0.000   0.000  -0.322  -0.000   0.000  -0.000   0.000   0.375   0.000  -0.000   0.000  -0.000
  0.000   0.000   0.000   0.000   0.000   0.000  -0.000  -0.277   0.000  -0.000   0.000   0.000   0.370   0.000   0.000  -0.000
  0.000   0.000   0.000   0.000   0.000   0.000   0.000   0.000  -0.545  -0.000  -0.110  -0.000   0.000   0.671   0.000  -0.017
  0.000   0.000   0.000   0.000   0.000   0.000  -0.000  -0.000  -0.000  -2.781  -0.000   0.000   0.000   0.000   1.854   0.000
  0.000   0.000   0.000   0.000   0.000   0.000   0.000   0.000  -0.115  -0.000  -1.167  -0.000  -0.000  -0.017   0.000   1.088
  0.000   0.000   0.000   0.000   0.000   0.000  -0.000  -0.000   0.070   0.000   0.420   0.000   0.000  -0.273  -0.000  -0.848
  0.000   0.000   0.000   0.000   0.000   0.000  -0.000  -0.000   0.022  -0.000  -0.002  -0.000  -0.000   0.023   0.000   0.091
 total augmentation occupancy for first ion, spin component:            2
 -0.000  -0.000  -0.000  -0.000  -0.000  -0.000   0.000   0.000   0.000   0.000   0.000   0.000   0.000   0.000   0.000   0.000
 -0.000  -0.000  -0.000  -0.000  -0.000  -0.000   0.000   0.000   0.000   0.000   0.000   0.000   0.000   0.000   0.000   0.000
 -0.000  -0.000  -0.000  -0.000  -0.000  -0.000   0.000   0.000   0.000   0.000   0.000   0.000   0.000   0.000   0.000   0.000
 -0.000  -0.000  -0.000  -0.000  -0.000  -0.000   0.000   0.000   0.000   0.000   0.000   0.000   0.000   0.000   0.000   0.000
 -0.000  -0.000  -0.000  -0.000   0.000   0.000   0.000   0.000   0.000   0.000   0.000   0.000   0.000   0.000   0.000   0.000
 -0.000  -0.000  -0.000  -0.000   0.000   0.000   0.000   0.000   0.000   0.000   0.000   0.000   0.000   0.000   0.000   0.000
  0.000   0.000   0.000   0.000   0.000   0.000  -0.000  -0.000  -0.000  -0.000  -0.000   0.000   0.000  -0.000   0.000  -0.000
  0.000   0.000   0.000   0.000   0.000   0.000  -0.000  -0.000  -0.000  -0.000   0.000   0.000   0.000   0.000   0.000  -0.000
  0.000   0.000   0.000   0.000   0.000   0.000  -0.000  -0.000   0.000   0.000   0.000   0.000   0.000  -0.000  -0.000   0.000
  0.000   0.000   0.000   0.000   0.000   0.000  -0.000  -0.000   0.000   0.000  -0.000   0.000   0.000  -0.000  -0.000   0.000
  0.000   0.000   0.000   0.000   0.000   0.000  -0.000   0.000   0.000  -0.000  -0.000  -0.000  -0.000   0.000   0.000   0.000
  0.000   0.000   0.000   0.000   0.000   0.000   0.000   0.000   0.000   0.000  -0.000   0.000   0.000  -0.000   0.000  -0.000
  0.000   0.000   0.000   0.000   0.000   0.000   0.000   0.000   0.000   0.000  -0.000   0.000   0.000   0.000   0.000  -0.000
  0.000   0.000   0.000   0.000   0.000   0.000  -0.000   0.000  -0.000  -0.000   0.000  -0.000   0.000   0.000  -0.000  -0.000
  0.000   0.000   0.000   0.000   0.000   0.000   0.000   0.000  -0.000  -0.000   0.000   0.000   0.000  -0.000   0.000   0.000
  0.000   0.000   0.000   0.000   0.000   0.000  -0.000  -0.000   0.000   0.000   0.000  -0.000  -0.000  -0.000   0.000   0.000
  0.000   0.000   0.000   0.000   0.000   0.000  -0.000  -0.000   0.000   0.000   0.000  -0.000  -0.000   0.000   0.000   0.000
  0.000   0.000   0.000   0.000   0.000   0.000   0.000   0.000  -0.000  -0.000  -0.000   0.000   0.000  -0.000  -0.000  -0.000


------------------------ aborting loop because EDIFF is reached ----------------------------------------





 total charge

# of ion       s       p       d       tot
------------------------------------------
    1        0.300   6.191   7.924  14.414
    2        0.300   6.191   7.924  14.414
    3        1.564   3.391   0.000   4.955
    4        1.564   3.391   0.000   4.955
--------------------------------------------------
tot          3.728  19.163  15.848  38.738



 magnetization (x)

# of ion       s       p       d       tot
------------------------------------------
    1       -0.000  -0.000   0.000   0.000
    2       -0.000  -0.000   0.000   0.000
    3        0.000   0.000   0.000   0.000
    4        0.000   0.000   0.000   0.000
--------------------------------------------------
tot          0.000   0.000   0.000   0.000
 
    CHARGE:  cpu time      0.2546: real time      0.4726
    FORLOC:  cpu time      0.0010: real time      0.0010
    FORNL :  cpu time      0.4711: real time      0.4711
    FORCOR:  cpu time      0.5166: real time      0.5166
    FORHAR:  cpu time      0.0079: real time      0.0079
    MIXING:  cpu time      0.0012: real time      0.0012
    OFIELD:  cpu time      0.0000: real time      0.0000

 ---------------------------------------------------------------------------------------------

         DFTD3 V3.0 Rev 1        
 DF pbe       
 parameters
 k1-k3        =   16.0000    1.3333   -4.0000
 Edisp (eV)   -1.24372

 E6    (eV) :    -0.7446
 E8    (eV) :    -0.4991
 % E8        : 40.13
    FORVDW:  cpu time      0.0081: real time      0.0081

 VOLUME and BASIS-vectors are now :
 -----------------------------------------------------------------------------
  energy-cutoff  :      500.00
  volume of cell :       50.08
      direct lattice vectors                 reciprocal lattice vectors
     3.053604110  0.000000000  0.000000000     0.327481875 -0.000000000  0.000000000
     0.000000000  3.053604110  0.000000000     0.000000000  0.327481875  0.000000000
     0.000000000  0.000000000  5.371256790    -0.000000000 -0.000000000  0.186176167

  length of vectors
     3.053604110  3.053604110  5.371256790     0.327481875  0.327481875  0.186176167


 FORCES acting on ions
    electron-ion (+dipol)            ewald-force                    non-local-force                 convergence-correction
 -----------------------------------------------------------------------------------------------
   0.636E-12 -.367E-14 -.685E-11   0.739E-14 -.375E-14 0.568E-13   0.219E-24 0.000E+00 0.000E+00   -.144E-13 -.455E-13 0.226E-12
   -.819E-14 0.634E-12 -.199E-12   0.256E-14 0.123E-13 -.568E-13   0.106E-24 0.000E+00 0.000E+00   -.931E-13 -.224E-13 -.118E-12
   -.145E-13 -.115E-11 0.720E-12   0.312E-15 0.187E-13 0.119E-12   -.125E-16 0.000E+00 0.139E-15   -.249E-13 0.234E-13 0.843E-13
   0.161E-13 0.101E-11 -.614E-12   -.648E-14 -.261E-13 -.119E-12   0.143E-16 0.000E+00 -.833E-16   -.137E-13 -.455E-13 -.543E-13
 -----------------------------------------------------------------------------------------------
   0.630E-12 0.481E-12 -.695E-11   0.379E-14 0.117E-14 0.128E-18   0.177E-17 0.000E+00 0.555E-16   -.146E-12 -.901E-13 0.139E-12
 
 
 POSITION                                       TOTAL-FORCE (eV/Angst)
 -----------------------------------------------------------------------------------
      1.52680      0.00000      2.68563         0.000000     -0.000000     -0.000000
      0.00000      1.52680      0.00000        -0.000000     -0.000000     -0.000000
      0.00000      0.00000      4.02844         0.000000     -0.000000      0.000000
      0.00000      0.00000      1.34281         0.000000      0.000000     -0.000000
 -----------------------------------------------------------------------------------
    total drift:                                0.000000      0.000000     -0.000000


--------------------------------------------------------------------------------------------------------



  FREE ENERGIE OF THE ION-ELECTRON SYSTEM (eV)
  ---------------------------------------------------
  free  energy   TOTEN  =       -23.44710644 eV

  energy  without entropy=      -23.44569166  energy(sigma->0) =      -23.44639905
 


--------------------------------------------------------------------------------------------------------


    POTLOK:  cpu time      0.5390: real time      0.5390


--------------------------------------------------------------------------------------------------------


     LOOP+:  cpu time     45.4262: real time     45.6674
    4ORBIT:  cpu time      0.0000: real time      0.0000



 total charge

# of ion       s       p       d       tot
------------------------------------------
    1        0.300   6.191   7.924  14.414
    2        0.300   6.191   7.924  14.414
    3        1.564   3.391   0.000   4.955
    4        1.564   3.391   0.000   4.955
--------------------------------------------------
tot          3.728  19.163  15.848  38.738



 magnetization (x)

# of ion       s       p       d       tot
------------------------------------------
    1       -0.000  -0.000   0.000   0.000
    2       -0.000  -0.000   0.000   0.000
    3        0.000   0.000   0.000   0.000
    4        0.000   0.000   0.000   0.000
--------------------------------------------------
tot          0.000   0.000   0.000   0.000
 

 total amount of memory used by VASP MPI-rank0    83112. kBytes
=======================================================================

   base      :      30000. kBytes
   nonl-proj :      22408. kBytes
   fftplans  :       6896. kBytes
   grid      :       5621. kBytes
   one-center:        124. kBytes
   wavefun   :      18063. kBytes
 
  
  
 General timing and accounting informations for this job:
 ========================================================
  
                  Total CPU time used (sec):       48.594
                            User time (sec):       47.699
                          System time (sec):        0.895
                         Elapsed time (sec):       49.197
  
                   Maximum memory used (kb):      372100.
                   Average memory used (kb):          N/A
  
                          Minor page faults:       329571
                          Major page faults:            1
                 Voluntary context switches:          557
