111
Lattice="12.21437083684855 0.0 7e-16 1.7e-15 10.811692246786171 7e-16 0.0 0.0 29.250333490173453" Properties=species:S:1:pos:R:3:move_mask:L:1:momenta:R:3:forces:R:3 idx=382 E_MACE=-573.4743364444586 d_min=1.82247701824506 d_reactive=3.2196881554263577 rank=3759 dE_rel_meV=1647.5533316246356 converged=T energy=-573.4743364444586 stress="0.002006283032977726 5.945718460990366e-06 0.00016256366794591278 5.945718460990366e-06 -5.8076636279114253e-05 -6.969772509064086e-05 0.00016256366794591278 -6.969772509064086e-05 -0.00399567302582879" pbc="T T T"
O        6.14573353       1.34044469       9.18139359  T       0.00000000       0.00000000       0.00000000       0.00573309      -0.01199212      -0.00379081
O        9.16077813       4.05438459       3.02679635  F       0.00000000       0.00000000       0.00000000       0.00101628       0.47871297       0.29045344
O        6.12304716       6.74546590       9.20561573  T       0.00000000       0.00000000       0.00000000      -0.02097682      -0.01236190      -0.00920994
O        6.13905946       9.47503728       9.16818164  T       0.00000000       0.00000000       0.00000000      -0.00477205       0.00533770       0.01889708
O        9.19823392       4.07071475       9.18928717  T       0.00000000       0.00000000       0.00000000      -0.00531939       0.00819380       0.01132957
O        3.07576009       1.34234783       9.11640286  T       0.00000000       0.00000000       0.00000000      -0.01228311       0.00956724      -0.01116338
O        0.00000000       6.75730765       3.02679635  F       0.00000000       0.00000000       0.00000000       0.00079259      -0.47517316       0.28170004
O        3.08194167       4.03539559       9.24157507  T       0.00000000       0.00000000       0.00000000      -0.00129934      -0.01011018       0.01459794
O        0.00017236       9.44571586       6.11190642  T       0.00000000       0.00000000       0.00000000      -0.00077957       0.01677815      -0.01667440
O        0.00000210       6.76116167       6.10263319  F       0.00000000       0.00000000       0.00000000       0.01449274      -0.05057287       0.03486213
O       12.24094103       9.46520104       9.14514043  T       0.00000000       0.00000000       0.00000000      -0.01311461       0.00773803       0.00901573
O       12.23288561       1.32843161       9.13235937  T       0.00000000       0.00000000       0.00000000       0.00619219       0.01096594       0.00761554
O       12.24830903       4.05066860       9.23653814  T       0.00000000       0.00000000       0.00000000      -0.01570923      -0.01524104      -0.01007547
O       -0.00123987       1.36302703       6.10772520  T       0.00000000       0.00000000       0.00000000       0.00557540      -0.01092834      -0.00875864
O        0.00000111       4.05052849       6.10263306  F       0.00000000       0.00000000       0.00000000      -0.00059173       0.03792058       0.03331284
O        3.05359271       4.05438459       3.02679635  F       0.00000000       0.00000000       0.00000000      -0.00077835       0.47636645       0.28778060
O        0.00000000       9.46023072       3.02679635  F       0.00000000       0.00000000       0.00000000       0.00117140       0.47977241       0.29743579
O        3.05531536       4.05498118       6.10486704  T       0.00000000       0.00000000       0.00000000      -0.00009555       0.02864598      -0.02546968
O        3.05359271       1.35146153       3.02679635  F       0.00000000       0.00000000       0.00000000      -0.00099735      -0.48284243       0.29736257
O        3.05448476       1.36423915       6.10686104  T       0.00000000       0.00000000       0.00000000       0.00283964      -0.00815274      -0.00281342
O        0.00000000       4.05438459       3.02679635  F       0.00000000       0.00000000       0.00000000       0.00130564       0.47619037       0.28593998
O        0.00000000       1.35146153       3.02679635  F       0.00000000       0.00000000       0.00000000       0.00053246      -0.47869695       0.29784643
O        9.16077813       1.35146153       3.02679635  F       0.00000000       0.00000000       0.00000000       0.00108773      -0.47774085       0.29331100
O        9.16077827       4.05052947       6.10263005  F       0.00000000       0.00000000       0.00000000       0.01271490      -0.02151986       0.02061913
O        0.04404028       6.76350346       9.25404824  T       0.00000000       0.00000000       0.00000000       0.00370210       0.01246506      -0.01137252
O        9.19253390       1.34528455       9.19439288  T       0.00000000       0.00000000       0.00000000      -0.01073091      -0.00744906      -0.02270429
O        9.16077740       1.35531546       6.10263307  F       0.00000000       0.00000000       0.00000000       0.01138934       0.04309893       0.02763490
O        6.12696223       4.06603251       9.20824841  T       0.00000000       0.00000000       0.00000000       0.00928232      -0.01333020      -0.01280127
O        6.10999529       1.36089229       6.10763755  T       0.00000000       0.00000000       0.00000000      -0.00023328      -0.00907170       0.00258801
O        6.10839849       4.05018792       6.10669555  T       0.00000000       0.00000000       0.00000000       0.00627644      -0.01335098       0.00406146
O        6.10718542       1.35146153       3.02679635  F       0.00000000       0.00000000       0.00000000      -0.00089319      -0.47741157       0.29505868
O        6.10718542       4.05438459       3.02679635  F       0.00000000       0.00000000       0.00000000      -0.00186670       0.47503398       0.29038638
O        3.08868357       9.48907011       9.08590510  T       0.00000000       0.00000000       0.00000000       0.01514373       0.00134027       0.00372269
O        3.05487259       6.75583006       6.10346652  T       0.00000000       0.00000000       0.00000000      -0.00089395      -0.01754391      -0.00295352
O        3.05506424       9.44615571       6.10020101  T       0.00000000       0.00000000       0.00000000       0.00322719       0.03974698       0.01781248
O        3.05359271       6.75730765       3.02679635  F       0.00000000       0.00000000       0.00000000      -0.00104022      -0.47488313       0.28825750
O        3.08116862       6.77247930       9.26589413  T       0.00000000       0.00000000       0.00000000      -0.00223675      -0.02594451      -0.02465589
O        6.10718542       9.46023072       3.02679635  F       0.00000000       0.00000000       0.00000000      -0.00090134       0.47881673       0.29453265
O        6.10718542       6.75730765       3.02679635  F       0.00000000       0.00000000       0.00000000      -0.00172745      -0.47534486       0.28961842
O        6.10960108       9.45127609       6.10562472  T       0.00000000       0.00000000       0.00000000      -0.00513894       0.00641159       0.00201776
O        6.10797040       6.75999124       6.10482043  T       0.00000000       0.00000000       0.00000000      -0.00004457       0.01362820       0.00045543
O        9.19262687       6.74431728       9.20454636  T       0.00000000       0.00000000       0.00000000      -0.00153065       0.01086952      -0.00450069
O        9.18224971       9.46262082       9.19645611  T       0.00000000       0.00000000       0.00000000       0.00218702       0.01431396      -0.00155292
O        9.16244219       6.76190925       6.10471674  T       0.00000000       0.00000000       0.00000000       0.00024278       0.01256845       0.02426666
O        9.16246521       9.45128953       6.10923006  T       0.00000000       0.00000000       0.00000000      -0.00350709       0.00197205      -0.00784643
O        9.16077813       6.75730765       3.02679635  F       0.00000000       0.00000000       0.00000000      -0.00041953      -0.47637063       0.28721601
O        3.05359271       9.46023072       3.02679635  F       0.00000000       0.00000000       0.00000000      -0.00061725       0.48350356       0.29528319
O        9.16077813       9.46023072       3.02679635  F       0.00000000       0.00000000       0.00000000      -0.00040299       0.47876816       0.29396854
Pd       3.05359414       2.70292461       4.56516084  F       0.00000000       0.00000000       0.00000000       0.00393214       0.02666881       0.20484215
Pd       6.10718542       2.70292306       1.50000000  F       0.00000000       0.00000000       0.00000000      -0.00026506       0.00114090      -0.90358322
Pd       3.05359287       8.10876720       4.56515841  F       0.00000000       0.00000000       0.00000000       0.00218736      -0.05838508       0.13861991
Pd       3.05967223       2.32346210      10.93352575  T       0.00000000       0.00000000       0.00000000      -0.00552162       0.02162364       0.00929448
Pd       3.07159855       2.73720635       7.66367770  T       0.00000000       0.00000000       0.00000000       0.00458768      -0.01847878       0.03727634
Pd       3.05359271       2.70292306       1.50000000  F       0.00000000       0.00000000       0.00000000       0.00016954       0.00236366      -0.90334957
Pd       4.58038906       5.40584612       3.02679635  F       0.00000000       0.00000000       0.00000000       0.00064085      -0.00073450       0.04982543
Pd       4.58038878       0.00000011       6.09434618  F       0.00000000       0.00000000       0.00000000       0.00567240       0.01531190       0.05377473
Pd       4.58038808       5.40584530       6.09434913  F       0.00000000       0.00000000       0.00000000       0.03916056      -0.01062703       0.07426548
Pd       7.63398177       0.00000000       3.02679635  F       0.00000000       0.00000000       0.00000000      -0.00059316      -0.00095498       0.05545389
Pd       3.05359271       8.10876919       1.50000000  F       0.00000000       0.00000000       0.00000000      -0.00011792      -0.00327274      -0.90181571
Pd       6.12336090       8.09857986       7.66358355  T       0.00000000       0.00000000       0.00000000      -0.00197905      -0.00189682      -0.01455260
Pd       7.63398372      10.81169054       6.09434173  F       0.00000000       0.00000000       0.00000000       0.00518487      -0.02521973       0.07710263
Pd       6.10718498       8.10876457       4.56515665  F       0.00000000       0.00000000       0.00000000       0.00602247      -0.01784151       0.18024815
Pd       1.52679863       5.40584339       6.09434623  F       0.00000000       0.00000000       0.00000000      -0.02123810      -0.00255112       0.07276370
Pd       7.63398177       5.40584612       3.02679635  F       0.00000000       0.00000000       0.00000000      -0.00085113       0.00021449       0.04843102
Pd       6.10718542       8.10876919       1.50000000  F       0.00000000       0.00000000       0.00000000       0.00040115      -0.00109518      -0.90256840
Pd       0.01022904       8.08207642       7.67162885  T       0.00000000       0.00000000       0.00000000      -0.00906864       0.00393727      -0.00739917
Pd       6.22553688       2.68363555      10.82429841  T       0.00000000       0.00000000       0.00000000       0.01006767       0.00664773      -0.00664135
Pd       1.56278613       5.40114426       9.18683974  T       0.00000000       0.00000000       0.00000000      -0.01476131       0.02064018       0.01835755
Pd       7.66938042       0.00103447       9.14881188  T       0.00000000       0.00000000       0.00000000      -0.00795452       0.01659202       0.00734903
Pd       6.12724022       2.71128646       7.66502673  T       0.00000000       0.00000000       0.00000000      -0.00654555       0.00964922      -0.01762343
Pd      12.50518159       8.25426596      10.85641003  T       0.00000000       0.00000000       0.00000000      -0.01132029       0.00236148      -0.00248320
Pd       6.10718636       2.70292272       4.56515365  F       0.00000000       0.00000000       0.00000000       0.00397341       0.01561396       0.19688403
Pd       3.07137339       8.08320739       7.65929965  T       0.00000000       0.00000000       0.00000000       0.01028666      -0.02305184      -0.01282219
Pd       0.00000286       8.10876728       4.56515590  F       0.00000000       0.00000000       0.00000000      -0.00375637      -0.00071161       0.20645575
Pd       4.59138311       5.40010090       9.18177718  T       0.00000000       0.00000000       0.00000000       0.01045083       0.01011523       0.00440205
Pd       9.16077813       2.70292306       1.50000000  F       0.00000000       0.00000000       0.00000000      -0.00012240       0.00028436      -0.90137653
Pd       3.10780561       8.33001241      10.83100790  T       0.00000000       0.00000000       0.00000000       0.00165569      -0.00963338      -0.01219993
Pd       0.00000000       8.10876919       1.50000000  F       0.00000000       0.00000000       0.00000000       0.00003936      -0.00158893      -0.90343739
Pd       8.96434437       8.11565416      10.81361370  T       0.00000000       0.00000000       0.00000000      -0.00165137      -0.00404897       0.01808244
Pd       1.52679635       0.00000000       3.02679635  F       0.00000000       0.00000000       0.00000000      -0.00065656      -0.00020251       0.05113357
Pd       1.52679635       5.40584612       3.02679635  F       0.00000000       0.00000000       0.00000000       0.00032793      -0.00018627       0.05123738
Pd      10.68757448       0.00000000       3.02679635  F       0.00000000       0.00000000       0.00000000      -0.00077273      -0.00154562       0.05872111
Pd      10.73397909       5.41333740       9.17335202  T       0.00000000       0.00000000       0.00000000       0.00580656      -0.01496311      -0.01577269
Pd       9.16077751       2.70292195       4.56515514  F       0.00000000       0.00000000       0.00000000      -0.00240565      -0.00079481       0.15522945
Pd      10.68757769      10.81169125       6.09434037  F       0.00000000       0.00000000       0.00000000       0.04804235      -0.04120801       0.07033072
Pd       9.16077986       8.10876364       4.56515811  F       0.00000000       0.00000000       0.00000000       0.00734988      -0.00237003       0.19982383
Pd       1.52679695      10.81169175       6.09434358  F       0.00000000       0.00000000       0.00000000      -0.00655268      -0.00880249       0.11185219
Pd       9.17982021       8.10101843       7.66698547  T       0.00000000       0.00000000       0.00000000      -0.00849863      -0.00241513      -0.01781309
Pd       9.17798598       2.70762216       7.66107078  T       0.00000000       0.00000000       0.00000000      -0.00298866      -0.00630365       0.03746684
Pd      10.70935178      -0.00964988       9.13901092  T       0.00000000       0.00000000       0.00000000      -0.00877694      -0.03410268      -0.00404698
Pd       0.00000037       2.70292295       4.56515782  F       0.00000000       0.00000000       0.00000000      -0.00141049       0.00553117       0.17558646
Pd       1.54866525      10.80377473       9.04172242  T       0.00000000       0.00000000       0.00000000      -0.00982277       0.02045009      -0.00037951
Pd       9.21154289       2.70252153      10.83285672  T       0.00000000       0.00000000       0.00000000      -0.00231886      -0.01049966      -0.00623749
Pd       6.07441048       8.14687054      10.83140774  T       0.00000000       0.00000000       0.00000000       0.00562089      -0.00276441       0.00381704
Pd      12.21593773       2.72243071       7.66366359  T       0.00000000       0.00000000       0.00000000      -0.00157808       0.00944386      -0.00648197
Pd      10.68757879       5.40584476       6.09434230  F       0.00000000       0.00000000       0.00000000       0.01435218       0.00259930       0.05132660
Pd       9.16077813       8.10876919       1.50000000  F       0.00000000       0.00000000       0.00000000      -0.00019294      -0.00031173      -0.90297815
Pd      10.68757448       5.40584612       3.02679635  F       0.00000000       0.00000000       0.00000000      -0.00227712       0.00037076       0.04947298
Pd      12.21565279       2.57015197      10.85236977  T       0.00000000       0.00000000       0.00000000      -0.00765091       0.02194260      -0.00743641
Pd       4.62049933      10.81593997       9.09248737  T       0.00000000       0.00000000       0.00000000      -0.00689986       0.00367823      -0.00311933
Pd       7.63398212       5.40584800       6.09434442  F       0.00000000       0.00000000       0.00000000       0.01595366       0.00163727       0.07153741
Pd       7.66120951       5.40736875       9.16295474  T       0.00000000       0.00000000       0.00000000      -0.00534607      -0.02405690      -0.00731883
Pd       4.58038906       0.00000000       3.02679635  F       0.00000000       0.00000000       0.00000000      -0.00037911       0.00080181       0.05574118
Pd       0.00000000       2.70292306       1.50000000  F       0.00000000       0.00000000       0.00000000       0.00021504       0.00180888      -0.90301925
C        3.17294340       3.32646974      12.45094718  T       0.00000000       0.00000000       0.00000000      -0.01731023       0.02865644       0.03421970
O        3.26442078       3.97238796      13.41576299  T       0.00000000       0.00000000       0.00000000      -0.00269346      -0.01054732      -0.03543727
O        2.56625487       0.26339522      11.66615719  T       0.00000000       0.00000000       0.00000000       0.02253894       0.04431582      -0.00085938
C        1.34649162       0.12699465      12.27447262  T       0.00000000       0.00000000       0.00000000       0.00004204      -0.01645825      -0.00168060
H        1.37776997       0.18200877      13.38354945  T       0.00000000       0.00000000       0.00000000      -0.01381292      -0.02528134       0.01887769
H        0.54941065       0.88437482      11.92195153  T       0.00000000       0.00000000       0.00000000      -0.02856251       0.01488650       0.01052765
H        0.84521033      -0.88093653      11.98456943  T       0.00000000       0.00000000       0.00000000      -0.00403149       0.01092452       0.01948578
