111
Lattice="12.21437083684855 0.0 7e-16 1.7e-15 10.811692246786171 7e-16 0.0 0.0 29.250333490173453" Properties=species:S:1:pos:R:3:move_mask:L:1:momenta:R:3:forces:R:3 idx=2151 E_MACE=-574.750591262553 d_min=1.9099928086222606 d_reactive=5.3045096908217095 rank=6 dE_rel_meV=371.29851353017784 converged=T energy=-574.750591262553 stress="0.0008731659782825387 -3.296676936989483e-05 -7.23365058269244e-05 -3.296676936989483e-05 -0.0011748819419774527 -2.7528063578254686e-06 -7.23365058269244e-05 -2.7528063578254686e-06 -0.004104725458586394" pbc="T T T"
O        6.10041824       1.32976477       9.19201444  T       0.00000000       0.00000000       0.00000000       0.01545311       0.02332905       0.00297377
O        9.16077813       4.05438459       3.02679635  F       0.00000000       0.00000000       0.00000000       0.00018826       0.47751389       0.29743920
O        6.06819766       6.72733454       9.15082589  T       0.00000000       0.00000000       0.00000000       0.01818142       0.01135792       0.01297931
O        6.05095024       9.45285855       9.17378997  T       0.00000000       0.00000000       0.00000000      -0.00131801      -0.02292789       0.01390555
O        9.14448665       4.06535947       9.15554311  T       0.00000000       0.00000000       0.00000000       0.02948507      -0.01351497       0.02119761
O        3.03195006       1.34044100       9.20164403  T       0.00000000       0.00000000       0.00000000      -0.01415886      -0.00428500      -0.00214939
O        0.00000000       6.75730765       3.02679635  F       0.00000000       0.00000000       0.00000000       0.00109476      -0.47556775       0.29505778
O        3.02297794       4.03905783       9.20714754  T       0.00000000       0.00000000       0.00000000      -0.00825190       0.00813378       0.01915821
O       -0.00080851       9.45327728       6.10619399  T       0.00000000       0.00000000       0.00000000       0.00115220       0.01345106      -0.01590205
O        0.00000210       6.76116167       6.10263319  F       0.00000000       0.00000000       0.00000000      -0.00819644       0.00632013       0.00187981
O       12.20791273       9.46246313       9.18929910  T       0.00000000       0.00000000       0.00000000      -0.02984259      -0.01333838       0.00905692
O       12.23903838       1.33033662       9.16346180  T       0.00000000       0.00000000       0.00000000       0.02783491       0.01533979       0.02530810
O       12.19584871       4.06373215       9.16807709  T       0.00000000       0.00000000       0.00000000       0.01018107      -0.00726632      -0.00470856
O        0.00414424       1.35923108       6.10602267  T       0.00000000       0.00000000       0.00000000      -0.00897829      -0.00076662      -0.01770161
O        0.00000111       4.05052849       6.10263306  F       0.00000000       0.00000000       0.00000000      -0.00228026       0.00944943       0.00774730
O        3.05359271       4.05438459       3.02679635  F       0.00000000       0.00000000       0.00000000      -0.00087562       0.47658194       0.29403166
O        0.00000000       9.46023072       3.02679635  F       0.00000000       0.00000000       0.00000000       0.00016093       0.47806159       0.29628852
O        3.05340140       4.04597830       6.10970406  T       0.00000000       0.00000000       0.00000000      -0.00091456       0.01332327      -0.02012337
O        3.05359271       1.35146153       3.02679635  F       0.00000000       0.00000000       0.00000000      -0.00104045      -0.47427474       0.29088808
O        3.05371957       1.35632319       6.10521570  T       0.00000000       0.00000000       0.00000000      -0.00301442       0.00999394      -0.01118166
O        0.00000000       4.05438459       3.02679635  F       0.00000000       0.00000000       0.00000000      -0.00334436       0.47674933       0.29293055
O        0.00000000       1.35146153       3.02679635  F       0.00000000       0.00000000       0.00000000      -0.00045580      -0.47810958       0.29432484
O        9.16077813       1.35146153       3.02679635  F       0.00000000       0.00000000       0.00000000       0.00014404      -0.47749659       0.29631556
O        9.16077827       4.05052947       6.10263005  F       0.00000000       0.00000000       0.00000000      -0.01253152       0.02519095      -0.01358540
O       -0.01078815       6.74075060       9.17470801  T       0.00000000       0.00000000       0.00000000       0.03051896      -0.00089924       0.01998949
O        9.09793353       1.31608742       9.14152218  T       0.00000000       0.00000000       0.00000000       0.00848509       0.03111447      -0.00220982
O        9.16077740       1.35531546       6.10263307  F       0.00000000       0.00000000       0.00000000      -0.05664389       0.02538133      -0.02466797
O        6.11538224       4.04507684       9.19662187  T       0.00000000       0.00000000       0.00000000      -0.01198721      -0.02524542       0.00665575
O        6.10583731       1.35529763       6.10322048  T       0.00000000       0.00000000       0.00000000      -0.00256295       0.00975366       0.00303140
O        6.10648839       4.04736432       6.10801055  T       0.00000000       0.00000000       0.00000000      -0.00622056      -0.00839888       0.00169805
O        6.10718542       1.35146153       3.02679635  F       0.00000000       0.00000000       0.00000000       0.00094865      -0.47510521       0.29170574
O        6.10718542       4.05438459       3.02679635  F       0.00000000       0.00000000       0.00000000       0.00109973       0.47698069       0.29572387
O        3.05289732       9.45115440       9.20209675  T       0.00000000       0.00000000       0.00000000       0.02105765      -0.01261646       0.00583526
O        3.05393910       6.76242568       6.10132150  T       0.00000000       0.00000000       0.00000000      -0.00685911       0.00485710       0.02082484
O        3.05334514       9.45315975       6.10653863  T       0.00000000       0.00000000       0.00000000      -0.00138098      -0.01124472       0.01116780
O        3.05359271       6.75730765       3.02679635  F       0.00000000       0.00000000       0.00000000       0.00008700      -0.47671563       0.28911472
O        3.05422328       6.72717840       9.17720715  T       0.00000000       0.00000000       0.00000000      -0.01485992      -0.00851208      -0.00406998
O        6.10718542       9.46023072       3.02679635  F       0.00000000       0.00000000       0.00000000       0.00050473       0.47981363       0.29378215
O        6.10718542       6.75730765       3.02679635  F       0.00000000       0.00000000       0.00000000       0.00085665      -0.47809625       0.28868140
O        6.10549242       9.45285546       6.10636296  T       0.00000000       0.00000000       0.00000000      -0.01150049      -0.00671524      -0.01114829
O        6.10601689       6.76087899       6.09861044  T       0.00000000       0.00000000       0.00000000      -0.00636586       0.01076328       0.02768257
O        9.14588205       6.74787828       9.15409052  T       0.00000000       0.00000000       0.00000000       0.00026197       0.02037984       0.01966016
O        9.16293405       9.45240391       9.16609863  T       0.00000000       0.00000000       0.00000000       0.00769983      -0.02681813       0.00281718
O        9.16037615       6.75911217       6.10127709  T       0.00000000       0.00000000       0.00000000      -0.00212385       0.00335577      -0.01137819
O        9.16164211       9.45385743       6.10128334  T       0.00000000       0.00000000       0.00000000      -0.00402995       0.02152070       0.00667413
O        9.16077813       6.75730765       3.02679635  F       0.00000000       0.00000000       0.00000000      -0.00221126      -0.47847157       0.29570566
O        3.05359271       9.46023072       3.02679635  F       0.00000000       0.00000000       0.00000000      -0.00044177       0.47724096       0.29285067
O        9.16077813       9.46023072       3.02679635  F       0.00000000       0.00000000       0.00000000      -0.00078718       0.48147070       0.29488135
Pd       3.05359414       2.70292461       4.56516084  F       0.00000000       0.00000000       0.00000000       0.00677133      -0.00221785       0.20969815
Pd       6.10718542       2.70292306       1.50000000  F       0.00000000       0.00000000       0.00000000       0.00022662       0.00022098      -0.90396149
Pd       3.05359287       8.10876720       4.56515841  F       0.00000000       0.00000000       0.00000000      -0.00427629       0.01508010       0.18473200
Pd       2.57152052       2.66634434      10.77801021  T       0.00000000       0.00000000       0.00000000      -0.01947108       0.00721371       0.00853761
Pd       3.04801768       2.69727941       7.66566712  T       0.00000000       0.00000000       0.00000000      -0.00426152      -0.00688532      -0.00838751
Pd       3.05359271       2.70292306       1.50000000  F       0.00000000       0.00000000       0.00000000      -0.00025391       0.00016992      -0.90408915
Pd       4.58038906       5.40584612       3.02679635  F       0.00000000       0.00000000       0.00000000       0.00007104      -0.00138307       0.05539142
Pd       4.58038878       0.00000011       6.09434618  F       0.00000000       0.00000000       0.00000000      -0.00805671      -0.03695282       0.06579066
Pd       4.58038808       5.40584530       6.09434913  F       0.00000000       0.00000000       0.00000000      -0.00359075      -0.04632181       0.06859842
Pd       7.63398177       0.00000000       3.02679635  F       0.00000000       0.00000000       0.00000000       0.00035339       0.00161512       0.05462539
Pd       3.05359271       8.10876919       1.50000000  F       0.00000000       0.00000000       0.00000000      -0.00033095       0.00042007      -0.90239361
Pd       6.07717896       8.09913102       7.66914427  T       0.00000000       0.00000000       0.00000000      -0.00886189       0.01806825      -0.02014646
Pd       7.63398372      10.81169054       6.09434173  F       0.00000000       0.00000000       0.00000000      -0.00774871      -0.04948093       0.05466797
Pd       6.10718498       8.10876457       4.56515665  F       0.00000000       0.00000000       0.00000000      -0.00130982       0.01723706       0.19388439
Pd       1.52679863       5.40584339       6.09434623  F       0.00000000       0.00000000       0.00000000       0.01740859      -0.01338392       0.06748716
Pd       7.63398177       5.40584612       3.02679635  F       0.00000000       0.00000000       0.00000000      -0.00032465      -0.00256151       0.05136542
Pd       6.10718542       8.10876919       1.50000000  F       0.00000000       0.00000000       0.00000000       0.00011500       0.00049920      -0.90170047
Pd      -0.01133754       8.10540751       7.65664831  T       0.00000000       0.00000000       0.00000000       0.02064878      -0.00034991      -0.00073476
Pd       6.63858641       2.65950851      10.75255820  T       0.00000000       0.00000000       0.00000000      -0.02226271       0.02074053       0.00038561
Pd       1.50949518       5.39191918       9.12146374  T       0.00000000       0.00000000       0.00000000      -0.02223264       0.02236725      -0.00573830
Pd       7.59621377      -0.04013864       9.10992155  T       0.00000000       0.00000000       0.00000000       0.01227229      -0.00229496      -0.00335915
Pd       6.09650302       2.69492805       7.66294995  T       0.00000000       0.00000000       0.00000000      -0.00018552       0.01751432      -0.01079864
Pd      12.50801059       8.09838558      10.78956862  T       0.00000000       0.00000000       0.00000000       0.00844402      -0.00267816      -0.00132498
Pd       6.10718636       2.70292272       4.56515365  F       0.00000000       0.00000000       0.00000000      -0.00937526       0.00123815       0.19460760
Pd       3.05387789       8.10127998       7.66819117  T       0.00000000       0.00000000       0.00000000       0.00823783      -0.01081167      -0.00662885
Pd       0.00000286       8.10876728       4.56515590  F       0.00000000       0.00000000       0.00000000      -0.00239263       0.00515887       0.16436610
Pd       4.56904910       5.36601960       9.13371411  T       0.00000000       0.00000000       0.00000000      -0.00795729      -0.00275001       0.00777356
Pd       9.16077813       2.70292306       1.50000000  F       0.00000000       0.00000000       0.00000000       0.00006553       0.00029660      -0.90333950
Pd       3.10367991       8.06181918      10.86188550  T       0.00000000       0.00000000       0.00000000       0.02800177       0.00062086      -0.00132087
Pd       0.00000000       8.10876919       1.50000000  F       0.00000000       0.00000000       0.00000000       0.00034722      -0.00019199      -0.90372816
Pd       8.59399624       8.18612475      10.84045199  T       0.00000000       0.00000000       0.00000000      -0.01308995      -0.00422239       0.01234419
Pd       1.52679635       0.00000000       3.02679635  F       0.00000000       0.00000000       0.00000000       0.00012421       0.00058374       0.05432899
Pd       1.52679635       5.40584612       3.02679635  F       0.00000000       0.00000000       0.00000000       0.00157297      -0.00147650       0.05298975
Pd      10.68757448       0.00000000       3.02679635  F       0.00000000       0.00000000       0.00000000       0.00114597      -0.00067778       0.05417558
Pd      10.67006976       5.40785987       9.09059298  T       0.00000000       0.00000000       0.00000000       0.00201649      -0.00633450       0.00415772
Pd       9.16077751       2.70292195       4.56515514  F       0.00000000       0.00000000       0.00000000      -0.00075459      -0.01428967       0.15517799
Pd      10.68757769      10.81169125       6.09434037  F       0.00000000       0.00000000       0.00000000       0.03470640      -0.00166197       0.07345993
Pd       9.16077986       8.10876364       4.56515811  F       0.00000000       0.00000000       0.00000000       0.00793335      -0.00536882       0.15935574
Pd       1.52679695      10.81169175       6.09434358  F       0.00000000       0.00000000       0.00000000       0.01004621      -0.01799965       0.06684139
Pd       9.16817820       8.10077661       7.65737540  T       0.00000000       0.00000000       0.00000000      -0.01085140      -0.00757498       0.01116984
Pd       9.12619520       2.71064945       7.65432449  T       0.00000000       0.00000000       0.00000000       0.02234858       0.00776277       0.00026930
Pd      10.67751001      -0.01654419       9.11436671  T       0.00000000       0.00000000       0.00000000      -0.01476561      -0.00499216       0.00495642
Pd       0.00000037       2.70292295       4.56515782  F       0.00000000       0.00000000       0.00000000       0.01034817      -0.01093852       0.18132383
Pd       1.52991400      10.78756735       9.14260981  T       0.00000000       0.00000000       0.00000000      -0.00138353       0.04048712       0.00722224
Pd       9.37236255       2.42091943      10.83458310  T       0.00000000       0.00000000       0.00000000       0.02081307      -0.00756068      -0.00085589
Pd       5.91275050       8.05956264      10.97514121  T       0.00000000       0.00000000       0.00000000      -0.00769510      -0.01273329      -0.02327466
Pd      12.22994306       2.71555591       7.66345740  T       0.00000000       0.00000000       0.00000000       0.00266917       0.01954907       0.02854368
Pd      10.68757879       5.40584476       6.09434230  F       0.00000000       0.00000000       0.00000000       0.00131441       0.01071182       0.05515196
Pd       9.16077813       8.10876919       1.50000000  F       0.00000000       0.00000000       0.00000000      -0.00023956      -0.00044187      -0.90171423
Pd      10.68757448       5.40584612       3.02679635  F       0.00000000       0.00000000       0.00000000       0.00043419       0.00126078       0.04853475
Pd      11.93730951       2.38352988      10.90128780  T       0.00000000       0.00000000       0.00000000      -0.00462764       0.01389513      -0.00217221
Pd       4.56025066      10.81942290       9.14464935  T       0.00000000       0.00000000       0.00000000       0.01560442      -0.03453233       0.00861948
Pd       7.63398212       5.40584800       6.09434442  F       0.00000000       0.00000000       0.00000000      -0.01683349      -0.01353494       0.06562201
Pd       7.62237288       5.40257606       9.08109569  T       0.00000000       0.00000000       0.00000000      -0.00437837       0.00652065       0.00290893
Pd       4.58038906       0.00000000       3.02679635  F       0.00000000       0.00000000       0.00000000       0.00044240      -0.00040394       0.05544175
Pd       0.00000000       2.70292306       1.50000000  F       0.00000000       0.00000000       0.00000000       0.00007562       0.00000024      -0.90316792
C        7.41888751       7.46127291      12.16021780  T       0.00000000       0.00000000       0.00000000       0.00190097      -0.01830680       0.01616698
O        7.34563910       6.89535540      13.20563249  T       0.00000000       0.00000000       0.00000000       0.02287670      -0.00623488      -0.02522002
O       10.59594383       3.21586536      12.30392217  T       0.00000000       0.00000000       0.00000000       0.00064371      -0.00070579       0.00844036
C       10.61847488       4.62778021      12.56487080  T       0.00000000       0.00000000       0.00000000      -0.00052882       0.00710479       0.01987119
H       11.45098415       4.83512007      13.26261580  T       0.00000000       0.00000000       0.00000000      -0.00450039       0.03063200      -0.01115433
H       10.76406490       5.21349727      11.63040799  T       0.00000000       0.00000000       0.00000000      -0.00373122      -0.03151489       0.00185896
H        9.66372820       4.92677637      13.03127215  T       0.00000000       0.00000000       0.00000000      -0.00592638       0.00175967       0.01322811
