111
Lattice="12.21437083684855 0.0 7e-16 1.7e-15 10.811692246786171 7e-16 0.0 0.0 29.250333490173453" Properties=species:S:1:pos:R:3:move_mask:L:1:momenta:R:3:forces:R:3 idx=3239 E_MACE=-574.3336446925588 d_min=1.8099834282298695 d_reactive=4.508209119124645 rank=1882 dE_rel_meV=788.2450835244299 converged=T energy=-574.3336446925588 stress="0.0013119666949997656 8.314219762078009e-05 0.00010056584677604079 8.314219762078009e-05 -0.0009045510826754645 0.00011257388098891853 0.00010056584677604079 0.00011257388098891853 -0.003957873678518309" pbc="T T T"
O        6.12372884       1.36182896       9.19363116  T       0.00000000       0.00000000       0.00000000       0.02740715      -0.01183478      -0.00707286
O        9.16077813       4.05438459       3.02679635  F       0.00000000       0.00000000       0.00000000       0.00007620       0.48095560       0.29502479
O        6.12478288       6.78766226       9.22831102  T       0.00000000       0.00000000       0.00000000      -0.00791383       0.01920199      -0.00450758
O        6.12127162       9.48212408       9.18047208  T       0.00000000       0.00000000       0.00000000      -0.00968202      -0.00462447      -0.00782198
O        9.16429185       4.06588710       9.13350281  T       0.00000000       0.00000000       0.00000000      -0.00334665      -0.01091280       0.00863560
O        3.07628255       1.35970235       9.21548921  T       0.00000000       0.00000000       0.00000000      -0.00421777       0.02035791      -0.00639505
O        0.00000000       6.75730765       3.02679635  F       0.00000000       0.00000000       0.00000000      -0.00171418      -0.47667197       0.29288013
O        3.09198774       4.07814867       9.20876599  T       0.00000000       0.00000000       0.00000000       0.00044690      -0.01188419      -0.00395086
O        0.00256171       9.45431597       6.10333098  T       0.00000000       0.00000000       0.00000000       0.00012941       0.00345096      -0.00731103
O        0.00000210       6.76116167       6.10263319  F       0.00000000       0.00000000       0.00000000       0.03594389       0.03820856       0.03124207
O       12.22381028       9.48945015       9.17107247  T       0.00000000       0.00000000       0.00000000      -0.00795235      -0.00533940       0.00279825
O       12.22412676       1.36529268       9.20677340  T       0.00000000       0.00000000       0.00000000      -0.01220091      -0.01128493      -0.01264142
O       12.24078949       4.06605202       9.19545870  T       0.00000000       0.00000000       0.00000000      -0.00729073       0.00471693      -0.00457954
O        0.00234455       1.35911421       6.10980627  T       0.00000000       0.00000000       0.00000000       0.00295133      -0.00375086      -0.02347959
O        0.00000111       4.05052849       6.10263306  F       0.00000000       0.00000000       0.00000000       0.03827107      -0.03656773       0.01399500
O        3.05359271       4.05438459       3.02679635  F       0.00000000       0.00000000       0.00000000       0.00081319       0.47457377       0.28682787
O        0.00000000       9.46023072       3.02679635  F       0.00000000       0.00000000       0.00000000       0.00024521       0.47736472       0.29420897
O        3.05472339       4.04876773       6.10552306  T       0.00000000       0.00000000       0.00000000       0.00272636       0.00473948       0.01101600
O        3.05359271       1.35146153       3.02679635  F       0.00000000       0.00000000       0.00000000       0.00037680      -0.47613015       0.29208013
O        3.05412567       1.36092868       6.11210782  T       0.00000000       0.00000000       0.00000000       0.00063703      -0.00601916      -0.00676845
O        0.00000000       4.05438459       3.02679635  F       0.00000000       0.00000000       0.00000000      -0.00215462       0.47596943       0.29031812
O        0.00000000       1.35146153       3.02679635  F       0.00000000       0.00000000       0.00000000      -0.00040411      -0.47761479       0.29590077
O        9.16077813       1.35146153       3.02679635  F       0.00000000       0.00000000       0.00000000       0.00013120      -0.48175892       0.29689176
O        9.16077827       4.05052947       6.10263005  F       0.00000000       0.00000000       0.00000000      -0.00470623      -0.00724092      -0.03697116
O        0.02054036       6.74740519       9.18869249  T       0.00000000       0.00000000       0.00000000       0.01178246       0.01777929       0.00172545
O        9.17073028       1.34342823       9.14316027  T       0.00000000       0.00000000       0.00000000      -0.00477434       0.01456593      -0.00711668
O        9.16077740       1.35531546       6.10263307  F       0.00000000       0.00000000       0.00000000       0.00065815      -0.07032575      -0.06166906
O        6.12610379       4.09479755       9.17801516  T       0.00000000       0.00000000       0.00000000      -0.00959064      -0.00757236       0.00430505
O        6.10454211       1.36078793       6.11162172  T       0.00000000       0.00000000       0.00000000       0.00679539      -0.00956422      -0.01680560
O        6.10539589       4.04910034       6.10370410  T       0.00000000       0.00000000       0.00000000       0.00814473       0.00479738      -0.01854938
O        6.10718542       1.35146153       3.02679635  F       0.00000000       0.00000000       0.00000000       0.00124732      -0.47741415       0.29454796
O        6.10718542       4.05438459       3.02679635  F       0.00000000       0.00000000       0.00000000       0.00229690       0.47589017       0.28781735
O        3.06076703       9.48582659       9.20042352  T       0.00000000       0.00000000       0.00000000      -0.00502917      -0.01875927      -0.00875521
O        3.05515441       6.76631792       6.11069573  T       0.00000000       0.00000000       0.00000000      -0.00773886      -0.00647993       0.01277036
O        3.05513832       9.45346810       6.10743753  T       0.00000000       0.00000000       0.00000000      -0.00702852       0.00128149      -0.01046605
O        3.05359271       6.75730765       3.02679635  F       0.00000000       0.00000000       0.00000000      -0.00103846      -0.47611806       0.29027102
O        3.06477205       6.77018098       9.22326793  T       0.00000000       0.00000000       0.00000000      -0.01355080       0.02171153       0.01452138
O        6.10718542       9.46023072       3.02679635  F       0.00000000       0.00000000       0.00000000       0.00088689       0.47590303       0.29005902
O        6.10718542       6.75730765       3.02679635  F       0.00000000       0.00000000       0.00000000       0.00140259      -0.47710618       0.29182115
O        6.10610782       9.45313430       6.10484846  T       0.00000000       0.00000000       0.00000000      -0.00499935       0.00212219       0.00496179
O        6.10642355       6.76527381       6.10978867  T       0.00000000       0.00000000       0.00000000      -0.00108148       0.00119291      -0.00272800
O        9.19863203       6.76070502       9.15894133  T       0.00000000       0.00000000       0.00000000       0.00358981       0.00194772      -0.00918358
O        9.17483185       9.48853894       9.13687582  T       0.00000000       0.00000000       0.00000000       0.00658851      -0.00234283       0.03638172
O        9.16273317       6.76192783       6.10165887  T       0.00000000       0.00000000       0.00000000      -0.00114545       0.01107697      -0.00035580
O        9.16122552       9.46098930       6.09373957  T       0.00000000       0.00000000       0.00000000      -0.00041198       0.00845221       0.00088876
O        9.16077813       6.75730765       3.02679635  F       0.00000000       0.00000000       0.00000000       0.00039413      -0.48132874       0.29875411
O        3.05359271       9.46023072       3.02679635  F       0.00000000       0.00000000       0.00000000      -0.00088682       0.47485778       0.28854370
O        9.16077813       9.46023072       3.02679635  F       0.00000000       0.00000000       0.00000000      -0.00097940       0.47796251       0.29562011
Pd       3.05359414       2.70292461       4.56516084  F       0.00000000       0.00000000       0.00000000      -0.00205490      -0.00638861       0.22631025
Pd       6.10718542       2.70292306       1.50000000  F       0.00000000       0.00000000       0.00000000      -0.00023700      -0.00056082      -0.90403327
Pd       3.05359287       8.10876720       4.56515841  F       0.00000000       0.00000000       0.00000000       0.00875135      -0.00707578       0.22881794
Pd       3.50008330       2.72226997      10.78517829  T       0.00000000       0.00000000       0.00000000      -0.02932045       0.00252236      -0.01114303
Pd       3.06604332       2.71216793       7.67049409  T       0.00000000       0.00000000       0.00000000      -0.01204450      -0.00972093       0.01389413
Pd       3.05359271       2.70292306       1.50000000  F       0.00000000       0.00000000       0.00000000       0.00046118      -0.00028588      -0.90400698
Pd       4.58038906       5.40584612       3.02679635  F       0.00000000       0.00000000       0.00000000      -0.00036028       0.00050085       0.05746104
Pd       4.58038878       0.00000011       6.09434618  F       0.00000000       0.00000000       0.00000000      -0.00496230       0.03036907       0.09003495
Pd       4.58038808       5.40584530       6.09434913  F       0.00000000       0.00000000       0.00000000       0.00134142       0.04681056       0.07639990
Pd       7.63398177       0.00000000       3.02679635  F       0.00000000       0.00000000       0.00000000      -0.00267610       0.00116896       0.05062330
Pd       3.05359271       8.10876919       1.50000000  F       0.00000000       0.00000000       0.00000000      -0.00021355      -0.00019224      -0.90381335
Pd       6.10429531       8.11516525       7.66869251  T       0.00000000       0.00000000       0.00000000      -0.01276454       0.00940628       0.02178168
Pd       7.63398372      10.81169054       6.09434173  F       0.00000000       0.00000000       0.00000000      -0.06427586       0.04203556       0.07023518
Pd       6.10718498       8.10876457       4.56515665  F       0.00000000       0.00000000       0.00000000      -0.00753674      -0.01917253       0.20768933
Pd       1.52679863       5.40584339       6.09434623  F       0.00000000       0.00000000       0.00000000       0.03021094       0.01572682       0.06146259
Pd       7.63398177       5.40584612       3.02679635  F       0.00000000       0.00000000       0.00000000      -0.00032093       0.00028170       0.05217063
Pd       6.10718542       8.10876919       1.50000000  F       0.00000000       0.00000000       0.00000000       0.00015804      -0.00017015      -0.90276190
Pd       0.02252649       8.11290731       7.66044917  T       0.00000000       0.00000000       0.00000000      -0.01103599       0.00825533       0.02306188
Pd       6.28740041       2.76839739      10.86136287  T       0.00000000       0.00000000       0.00000000       0.02225172      -0.00639800      -0.00026344
Pd       1.55653579       5.40747536       9.17828432  T       0.00000000       0.00000000       0.00000000      -0.01066024      -0.01631301      -0.01561928
Pd       7.65125847       0.01918860       9.07737296  T       0.00000000       0.00000000       0.00000000       0.01427233      -0.01358814      -0.00024006
Pd       6.09911994       2.71398295       7.66799798  T       0.00000000       0.00000000       0.00000000       0.00033751      -0.01838082       0.00578504
Pd      12.08516164       8.09704505      10.82659724  T       0.00000000       0.00000000       0.00000000       0.03104464       0.01117289       0.01127802
Pd       6.10718636       2.70292272       4.56515365  F       0.00000000       0.00000000       0.00000000      -0.00908979      -0.00552680       0.22224326
Pd       3.06409389       8.11596498       7.67131760  T       0.00000000       0.00000000       0.00000000      -0.00470457      -0.00452029       0.01659163
Pd       0.00000286       8.10876728       4.56515590  F       0.00000000       0.00000000       0.00000000       0.00619508      -0.01495861       0.15893309
Pd       4.60072183       5.44166200       9.17397947  T       0.00000000       0.00000000       0.00000000      -0.01120201      -0.00302976      -0.01279764
Pd       9.16077813       2.70292306       1.50000000  F       0.00000000       0.00000000       0.00000000       0.00025008      -0.00012077      -0.90290789
Pd       2.69583157       8.14664330      10.80286365  T       0.00000000       0.00000000       0.00000000       0.01781891      -0.01207916      -0.02053874
Pd       0.00000000       8.10876919       1.50000000  F       0.00000000       0.00000000       0.00000000       0.00045147       0.00010368      -0.90180735
Pd       9.20052433       7.86163510      10.88659480  T       0.00000000       0.00000000       0.00000000       0.00419419       0.01009728      -0.01893851
Pd       1.52679635       0.00000000       3.02679635  F       0.00000000       0.00000000       0.00000000       0.00065308       0.00082625       0.05505980
Pd       1.52679635       5.40584612       3.02679635  F       0.00000000       0.00000000       0.00000000      -0.00007015       0.00057003       0.05591731
Pd      10.68757448       0.00000000       3.02679635  F       0.00000000       0.00000000       0.00000000       0.00180231       0.00186963       0.05138217
Pd      10.71900865       5.40638443       9.11746822  T       0.00000000       0.00000000       0.00000000      -0.00761375       0.00145401      -0.00194809
Pd       9.16077751       2.70292195       4.56515514  F       0.00000000       0.00000000       0.00000000      -0.00074662       0.02385320       0.17007967
Pd      10.68757769      10.81169125       6.09434037  F       0.00000000       0.00000000       0.00000000       0.05485859       0.04095135       0.07902907
Pd       9.16077986       8.10876364       4.56515811  F       0.00000000       0.00000000       0.00000000      -0.00050825      -0.02119661       0.09531192
Pd       1.52679695      10.81169175       6.09434358  F       0.00000000       0.00000000       0.00000000       0.03917177       0.03542116       0.09186305
Pd       9.17302937       8.12819754       7.64618151  T       0.00000000       0.00000000       0.00000000       0.00894386      -0.00557837       0.01452976
Pd       9.16533244       2.68596904       7.65077665  T       0.00000000       0.00000000       0.00000000       0.01135003       0.00555425       0.03439156
Pd      10.69522161       0.01880784       9.08584875  T       0.00000000       0.00000000       0.00000000      -0.02010730      -0.00215701       0.01354851
Pd       0.00000037       2.70292295       4.56515782  F       0.00000000       0.00000000       0.00000000       0.00785185       0.00071241       0.19865917
Pd       1.53961713      10.83753512       9.15731413  T       0.00000000       0.00000000       0.00000000      -0.00695605      -0.00066716       0.01736845
Pd       9.10668905       3.11249669      10.98606719  T       0.00000000       0.00000000       0.00000000      -0.00914226       0.00418381      -0.01733109
Pd       6.48105081       8.13656406      10.83526684  T       0.00000000       0.00000000       0.00000000       0.01072135       0.00703150       0.01115140
Pd      12.23719875       2.70634660       7.66303439  T       0.00000000       0.00000000       0.00000000      -0.00327508       0.00335030       0.01406615
Pd      10.68757879       5.40584476       6.09434230  F       0.00000000       0.00000000       0.00000000      -0.00478730      -0.01047918       0.06354146
Pd       9.16077813       8.10876919       1.50000000  F       0.00000000       0.00000000       0.00000000      -0.00029745       0.00009884      -0.90106525
Pd      10.68757448       5.40584612       3.02679635  F       0.00000000       0.00000000       0.00000000      -0.00128010      -0.00096279       0.04853720
Pd      11.83402326       2.75222048      10.79784340  T       0.00000000       0.00000000       0.00000000       0.00283627      -0.01164362       0.00926538
Pd       4.59654283      10.82115302       9.15968889  T       0.00000000       0.00000000       0.00000000       0.00115266       0.00027753      -0.00529661
Pd       7.63398212       5.40584800       6.09434442  F       0.00000000       0.00000000       0.00000000      -0.01926049       0.02208461       0.07901368
Pd       7.64330481       5.43459016       9.12333427  T       0.00000000       0.00000000       0.00000000       0.00909650      -0.00415879      -0.00833003
Pd       4.58038906       0.00000000       3.02679635  F       0.00000000       0.00000000       0.00000000      -0.00121145       0.00136570       0.05838519
Pd       0.00000000       2.70292306       1.50000000  F       0.00000000       0.00000000       0.00000000      -0.00057970      -0.00053491      -0.90329079
C        9.09435409       2.63877577      12.73291474  T       0.00000000       0.00000000       0.00000000       0.00355639       0.00159903       0.02298891
O        9.11433769       2.39384595      13.87285584  T       0.00000000       0.00000000       0.00000000      -0.01857128      -0.01983412      -0.00004334
O        9.11421910      -1.86533419      12.54173862  T       0.00000000       0.00000000       0.00000000      -0.01402018      -0.02181950      -0.03070554
C        8.05850320      -0.96249622      12.57450442  T       0.00000000       0.00000000       0.00000000      -0.00585484      -0.00319791       0.00417708
H        7.89916374      -0.60291530      13.61086085  T       0.00000000       0.00000000       0.00000000       0.01226079       0.00857480       0.01377219
H        8.18305271      -0.09646175      11.88372715  T       0.00000000       0.00000000       0.00000000      -0.02154277      -0.00354940       0.01250272
H        7.03263131      -1.43022147      12.27579861  T       0.00000000       0.00000000       0.00000000      -0.01681353      -0.03440203      -0.01011295
