111
Lattice="12.21437083684855 0.0 7e-16 1.7e-15 10.811692246786171 7e-16 0.0 0.0 29.250333490173453" Properties=species:S:1:pos:R:3:move_mask:L:1:momenta:R:3:forces:R:3 idx=896 E_MACE=-573.3434408322578 d_min=1.826569720338979 d_reactive=3.176378829583149 rank=3761 dE_rel_meV=1778.448943825424 converged=T energy=-573.3434408322578 stress="0.0018044004228037211 4.024343735266462e-05 7.712029076082779e-05 4.024343735266462e-05 -5.653465255761516e-05 0.00018698732559884254 7.712029076082779e-05 0.00018698732559884254 -0.0039683983711635016" pbc="T T T"
O        6.12579718       1.33571081       9.18024552  T       0.00000000       0.00000000       0.00000000      -0.01278731      -0.02212227      -0.01306751
O        9.16077813       4.05438459       3.02679635  F       0.00000000       0.00000000       0.00000000       0.00070451       0.47721222       0.29547445
O        6.13015259       6.75823979       9.19158100  T       0.00000000       0.00000000       0.00000000      -0.02274761       0.00692344      -0.00215061
O        6.13944263       9.47640116       9.18979101  T       0.00000000       0.00000000       0.00000000      -0.03020939       0.00337940      -0.00453645
O        9.16747793       4.07046851       9.17934667  T       0.00000000       0.00000000       0.00000000      -0.01732433       0.02772709       0.01485593
O        3.07226149       1.33879563       9.19826748  T       0.00000000       0.00000000       0.00000000       0.00275418       0.00055735      -0.00337034
O        0.00000000       6.75730765       3.02679635  F       0.00000000       0.00000000       0.00000000      -0.00135973      -0.48221955       0.29789977
O        3.08559019       4.07723754       9.15837068  T       0.00000000       0.00000000       0.00000000      -0.01499311      -0.00113143      -0.01068333
O        0.00244000       9.46282036       6.10254768  T       0.00000000       0.00000000       0.00000000      -0.01658077       0.01630266      -0.00553977
O        0.00000210       6.76116167       6.10263319  F       0.00000000       0.00000000       0.00000000       0.00683143       0.15170569      -0.00238898
O       12.23340861       9.44129555       9.28489833  T       0.00000000       0.00000000       0.00000000       0.00751349       0.00816902       0.01167675
O       12.25547046       1.39452016       9.27318990  T       0.00000000       0.00000000       0.00000000      -0.00014456      -0.01633975       0.00515935
O       12.22895427       4.07647991       9.12929872  T       0.00000000       0.00000000       0.00000000      -0.01825981       0.02055233      -0.02277840
O        0.00001954       1.35509357       6.10767681  T       0.00000000       0.00000000       0.00000000       0.01358418      -0.02428223       0.03582276
O        0.00000111       4.05052849       6.10263306  F       0.00000000       0.00000000       0.00000000      -0.00638591      -0.14353680       0.06549837
O        3.05359271       4.05438459       3.02679635  F       0.00000000       0.00000000       0.00000000      -0.00046404       0.47755949       0.29724071
O        0.00000000       9.46023072       3.02679635  F       0.00000000       0.00000000       0.00000000       0.00021524       0.47688598       0.28813245
O        3.05641007       4.04741787       6.10395321  T       0.00000000       0.00000000       0.00000000      -0.00601472      -0.00523902       0.00972269
O        3.05359271       1.35146153       3.02679635  F       0.00000000       0.00000000       0.00000000      -0.00229407      -0.47709507       0.29098797
O        3.05446293       1.35505975       6.10369915  T       0.00000000       0.00000000       0.00000000       0.00463554      -0.00281786       0.01066760
O        0.00000000       4.05438459       3.02679635  F       0.00000000       0.00000000       0.00000000       0.00003089       0.48030986       0.29189179
O        0.00000000       1.35146153       3.02679635  F       0.00000000       0.00000000       0.00000000       0.00035938      -0.48084100       0.28700740
O        9.16077813       1.35146153       3.02679635  F       0.00000000       0.00000000       0.00000000       0.00101009      -0.47820054       0.29101323
O        9.16077827       4.05052947       6.10263005  F       0.00000000       0.00000000       0.00000000      -0.01120768      -0.04288108       0.02187917
O        0.00976167       6.73874800       9.08385089  T       0.00000000       0.00000000       0.00000000       0.00467067      -0.02604527      -0.01150389
O        9.19338441       1.35491633       9.20473609  T       0.00000000       0.00000000       0.00000000      -0.00563067      -0.02788386       0.00698424
O        9.16077740       1.35531546       6.10263307  F       0.00000000       0.00000000       0.00000000       0.00954201       0.02375399       0.04608386
O        6.12100439       4.07128890       9.18056421  T       0.00000000       0.00000000       0.00000000       0.00663532      -0.00102341      -0.00133557
O        6.10812368       1.35717736       6.10531130  T       0.00000000       0.00000000       0.00000000      -0.00222083      -0.00634995      -0.01405211
O        6.10770531       4.04889499       6.10286623  T       0.00000000       0.00000000       0.00000000       0.00006478      -0.00247866      -0.00113695
O        6.10718542       1.35146153       3.02679635  F       0.00000000       0.00000000       0.00000000      -0.00014037      -0.47809765       0.29184127
O        6.10718542       4.05438459       3.02679635  F       0.00000000       0.00000000       0.00000000      -0.00075574       0.47726026       0.29230906
O        3.06591238       9.45947476       9.22572319  T       0.00000000       0.00000000       0.00000000      -0.02507775       0.01662540      -0.00738823
O        3.05437830       6.76848801       6.10709396  T       0.00000000       0.00000000       0.00000000       0.00775795       0.00305809       0.00137751
O        3.05326032       9.45825783       6.10436383  T       0.00000000       0.00000000       0.00000000       0.00607764       0.01189121      -0.01766546
O        3.05359271       6.75730765       3.02679635  F       0.00000000       0.00000000       0.00000000       0.00011824      -0.48018257       0.29626921
O        3.07999098       6.75563908       9.15539928  T       0.00000000       0.00000000       0.00000000      -0.01787043      -0.01496184       0.00621140
O        6.10718542       9.46023072       3.02679635  F       0.00000000       0.00000000       0.00000000      -0.00107460       0.47698921       0.29074909
O        6.10718542       6.75730765       3.02679635  F       0.00000000       0.00000000       0.00000000      -0.00184657      -0.47815261       0.29349902
O        6.10961132       9.45495361       6.10476019  T       0.00000000       0.00000000       0.00000000      -0.00022282       0.00595092      -0.01107068
O        6.10905835       6.76368487       6.10564988  T       0.00000000       0.00000000       0.00000000      -0.00308681       0.00310268       0.00081684
O        9.16558990       6.75816474       9.18059186  T       0.00000000       0.00000000       0.00000000       0.02237102      -0.00378568       0.00378296
O        9.20382461       9.48244696       9.20523360  T       0.00000000       0.00000000       0.00000000       0.00468657       0.00836340       0.00428351
O        9.16086375       6.76768583       6.10821463  T       0.00000000       0.00000000       0.00000000      -0.00664929       0.00099396       0.00676644
O        9.16437122       9.45724782       6.10339516  T       0.00000000       0.00000000       0.00000000      -0.01079591       0.00315906      -0.00126255
O        9.16077813       6.75730765       3.02679635  F       0.00000000       0.00000000       0.00000000      -0.00152408      -0.47890647       0.29600696
O        3.05359271       9.46023072       3.02679635  F       0.00000000       0.00000000       0.00000000      -0.00095153       0.47579857       0.28789537
O        9.16077813       9.46023072       3.02679635  F       0.00000000       0.00000000       0.00000000       0.00096007       0.47503282       0.28792690
Pd       3.05359414       2.70292461       4.56516084  F       0.00000000       0.00000000       0.00000000       0.00199742      -0.00932147       0.15806584
Pd       6.10718542       2.70292306       1.50000000  F       0.00000000       0.00000000       0.00000000       0.00008615      -0.00032248      -0.90224235
Pd       3.05359287       8.10876720       4.56515841  F       0.00000000       0.00000000       0.00000000      -0.00083585       0.01616328       0.18063365
Pd       3.28585084       2.72746938      10.81454180  T       0.00000000       0.00000000       0.00000000      -0.00007459       0.00472632      -0.01035004
Pd       3.06959434       2.69411057       7.65834333  T       0.00000000       0.00000000       0.00000000       0.00022541       0.00623495       0.00944004
Pd       3.05359271       2.70292306       1.50000000  F       0.00000000       0.00000000       0.00000000      -0.00001845      -0.00146848      -0.90286926
Pd       4.58038906       5.40584612       3.02679635  F       0.00000000       0.00000000       0.00000000      -0.00022017       0.00104631       0.05572430
Pd       4.58038878       0.00000011       6.09434618  F       0.00000000       0.00000000       0.00000000       0.02482392       0.00166063       0.07731818
Pd       4.58038808       5.40584530       6.09434913  F       0.00000000       0.00000000       0.00000000      -0.00196113       0.04011469       0.07174993
Pd       7.63398177       0.00000000       3.02679635  F       0.00000000       0.00000000       0.00000000      -0.00136080      -0.00028441       0.04777653
Pd       3.05359271       8.10876919       1.50000000  F       0.00000000       0.00000000       0.00000000       0.00011644       0.00138039      -0.90314867
Pd       6.12875929       8.11392348       7.66066702  T       0.00000000       0.00000000       0.00000000      -0.02610393       0.00956589       0.01550977
Pd       7.63398372      10.81169054       6.09434173  F       0.00000000       0.00000000       0.00000000       0.02280669       0.00643775       0.06358395
Pd       6.10718498       8.10876457       4.56515665  F       0.00000000       0.00000000       0.00000000       0.00724410       0.00165424       0.16857233
Pd       1.52679863       5.40584339       6.09434623  F       0.00000000       0.00000000       0.00000000       0.04589413       0.00658859       0.07791017
Pd       7.63398177       5.40584612       3.02679635  F       0.00000000       0.00000000       0.00000000       0.00035675       0.00132743       0.05391765
Pd       6.10718542       8.10876919       1.50000000  F       0.00000000       0.00000000       0.00000000      -0.00001037       0.00019095      -0.90270828
Pd       0.00797741       8.13957291       7.65759288  T       0.00000000       0.00000000       0.00000000      -0.03005136      -0.02780602       0.00357346
Pd       6.10094015       2.70325668      10.84896277  T       0.00000000       0.00000000       0.00000000      -0.00460585      -0.00212694      -0.01294137
Pd       1.55682708       5.41986398       9.06198120  T       0.00000000       0.00000000       0.00000000       0.00641784       0.01718387       0.00209454
Pd       7.66943536       0.00453581       9.15300284  T       0.00000000       0.00000000       0.00000000      -0.01866546      -0.00714178       0.02544651
Pd       6.11636304       2.70235535       7.66171209  T       0.00000000       0.00000000       0.00000000      -0.00193927      -0.00329422       0.00872589
Pd      12.21527957       7.88199402      10.82358709  T       0.00000000       0.00000000       0.00000000       0.00205090      -0.02560474      -0.04049457
Pd       6.10718636       2.70292272       4.56515365  F       0.00000000       0.00000000       0.00000000       0.00226628      -0.00693606       0.16563380
Pd       3.06519437       8.13021986       7.66432727  T       0.00000000       0.00000000       0.00000000       0.01356868      -0.02517611       0.01906037
Pd       0.00000286       8.10876728       4.56515590  F       0.00000000       0.00000000       0.00000000       0.00424624       0.00764799       0.16891064
Pd       4.60617282       5.41929927       9.13201323  T       0.00000000       0.00000000       0.00000000      -0.00227483      -0.01521047       0.00127703
Pd       9.16077813       2.70292306       1.50000000  F       0.00000000       0.00000000       0.00000000      -0.00015450      -0.00094635      -0.90120350
Pd       3.04621490       8.01375144      10.85674383  T       0.00000000       0.00000000       0.00000000      -0.00618013      -0.00676154      -0.01049153
Pd       0.00000000       8.10876919       1.50000000  F       0.00000000       0.00000000       0.00000000      -0.00004392       0.00281211      -0.90256533
Pd       9.17440947       8.10121195      10.82827670  T       0.00000000       0.00000000       0.00000000      -0.00004203      -0.01681711      -0.02589094
Pd       1.52679635       0.00000000       3.02679635  F       0.00000000       0.00000000       0.00000000       0.00032279       0.00076092       0.05214545
Pd       1.52679635       5.40584612       3.02679635  F       0.00000000       0.00000000       0.00000000      -0.00213607       0.00117575       0.05024072
Pd      10.68757448       0.00000000       3.02679635  F       0.00000000       0.00000000       0.00000000      -0.00128352       0.00077730       0.05214861
Pd      10.68767008       5.41313400       9.09315822  T       0.00000000       0.00000000       0.00000000       0.00276705       0.02011718       0.02680090
Pd       9.16077751       2.70292195       4.56515514  F       0.00000000       0.00000000       0.00000000       0.00393428      -0.00088421       0.15800463
Pd      10.68757769      10.81169125       6.09434037  F       0.00000000       0.00000000       0.00000000       0.02049201       0.04512787       0.05735934
Pd       9.16077986       8.10876364       4.56515811  F       0.00000000       0.00000000       0.00000000       0.00640930       0.00728454       0.18187859
Pd       1.52679695      10.81169175       6.09434358  F       0.00000000       0.00000000       0.00000000       0.01168981       0.05011193       0.07022884
Pd       9.17424156       8.12511333       7.66442209  T       0.00000000       0.00000000       0.00000000       0.00356442      -0.02135918       0.01247357
Pd       9.16956103       2.70113761       7.65951377  T       0.00000000       0.00000000       0.00000000       0.02471389       0.00263835      -0.02132167
Pd      10.73675616       0.02338989       9.20108664  T       0.00000000       0.00000000       0.00000000       0.00142507      -0.01991517       0.00665290
Pd       0.00000037       2.70292295       4.56515782  F       0.00000000       0.00000000       0.00000000      -0.00128576       0.00481167       0.24540417
Pd       1.53735668      10.81661966       9.19747053  T       0.00000000       0.00000000       0.00000000       0.00213113      -0.01139094      -0.01328073
Pd       8.89561004       2.72059903      10.80005556  T       0.00000000       0.00000000       0.00000000       0.00435251       0.00109955      -0.00396036
Pd       6.10212240       8.11593875      10.82664551  T       0.00000000       0.00000000       0.00000000       0.00746411      -0.00635794       0.00806873
Pd      12.22324464       2.67693137       7.67746514  T       0.00000000       0.00000000       0.00000000       0.00022249       0.00373263       0.00535301
Pd      10.68757879       5.40584476       6.09434230  F       0.00000000       0.00000000       0.00000000      -0.01902896       0.01574837       0.04430343
Pd       9.16077813       8.10876919       1.50000000  F       0.00000000       0.00000000       0.00000000       0.00008913       0.00074874      -0.90305976
Pd      10.68757448       5.40584612       3.02679635  F       0.00000000       0.00000000       0.00000000       0.00067051       0.00111984       0.05289201
Pd      12.50704647       3.17305380      10.95369008  T       0.00000000       0.00000000       0.00000000      -0.02803411      -0.03766900       0.01190817
Pd       4.59680556      10.80213557       9.15257646  T       0.00000000       0.00000000       0.00000000      -0.00942308      -0.00979726       0.00500257
Pd       7.63398212       5.40584800       6.09434442  F       0.00000000       0.00000000       0.00000000       0.02554802       0.03284304       0.06763651
Pd       7.64631754       5.41408640       9.14632376  T       0.00000000       0.00000000       0.00000000       0.00130827      -0.00142540       0.00538217
Pd       4.58038906       0.00000000       3.02679635  F       0.00000000       0.00000000       0.00000000       0.00069087       0.00014210       0.04878163
Pd       0.00000000       2.70292306       1.50000000  F       0.00000000       0.00000000       0.00000000       0.00018653      -0.00237392      -0.90220895
C        0.59106062       2.18183794      12.45862013  T       0.00000000       0.00000000       0.00000000       0.00684849      -0.01261306       0.02797687
O        0.79269748       1.54975465      13.41695883  T       0.00000000       0.00000000       0.00000000      -0.01918691       0.01285430      -0.03453287
O        0.28186681       5.24704745      11.68513950  T       0.00000000       0.00000000       0.00000000      -0.00539476      -0.02321780      -0.03000459
C        1.27421073       5.65427347      12.58617368  T       0.00000000       0.00000000       0.00000000       0.03306481       0.01040849       0.00595259
H        1.57740024       4.87620860      13.31777347  T       0.00000000       0.00000000       0.00000000      -0.00541622      -0.02751420      -0.00636255
H        2.21885506       5.98902674      12.05876605  T       0.00000000       0.00000000       0.00000000       0.01985195       0.03706790       0.01634170
H        0.90485575       6.52282625      13.17909686  T       0.00000000       0.00000000       0.00000000       0.01398089      -0.00425909       0.04397243
