111
Lattice="12.21437083684855 0.0 7e-16 1.7e-15 10.811692246786171 7e-16 0.0 0.0 29.250333490173453" Properties=species:S:1:pos:R:3:move_mask:L:1:momenta:R:3:forces:R:3 idx=416 E_MACE=-574.3332670951297 d_min=1.8096213934876337 d_reactive=5.257449613544022 rank=1883 dE_rel_meV=788.6226809534946 converged=T energy=-574.3332670951297 stress="0.0017715334908667106 3.626585953193951e-05 3.2257028849233034e-05 3.626585953193951e-05 -0.0006441047298416259 -0.00013922237915378664 3.2257028849233034e-05 -0.00013922237915378664 -0.003977366401255936" pbc="T T T"
O        6.10601846       1.29549542       9.13619995  T       0.00000000       0.00000000       0.00000000       0.00054647       0.00385944      -0.01079820
O        9.16077813       4.05438459       3.02679635  F       0.00000000       0.00000000       0.00000000      -0.00026370       0.47773171       0.29123059
O        6.11908129       6.72846513       9.16602770  T       0.00000000       0.00000000       0.00000000       0.00288922       0.01429043       0.02223427
O        6.10512678       9.42211223       9.20304442  T       0.00000000       0.00000000       0.00000000       0.01052300       0.01792785      -0.02794191
O        9.15571072       4.02876819       9.21570649  T       0.00000000       0.00000000       0.00000000       0.00608290      -0.01036371       0.02313092
O        3.05536389       1.32875299       9.14191641  T       0.00000000       0.00000000       0.00000000       0.00049702       0.00524243      -0.03094332
O        0.00000000       6.75730765       3.02679635  F       0.00000000       0.00000000       0.00000000      -0.00007185      -0.47516213       0.28603053
O        3.05871974       4.04579342       9.17277656  T       0.00000000       0.00000000       0.00000000       0.01498003      -0.01502725      -0.01716950
O       -0.00007006       9.45012413       6.11229762  T       0.00000000       0.00000000       0.00000000      -0.00594408      -0.00412569       0.01606557
O        0.00000210       6.76116167       6.10263319  F       0.00000000       0.00000000       0.00000000      -0.00867678       0.02719150       0.03621707
O       12.21727500       9.43803779       9.22127968  T       0.00000000       0.00000000       0.00000000      -0.01711150      -0.00018108       0.01237339
O       12.21437871       1.31627263       9.18049033  T       0.00000000       0.00000000       0.00000000       0.00193676       0.02872149       0.02478249
O       12.22563009       4.02440745       9.22533416  T       0.00000000       0.00000000       0.00000000       0.00025710      -0.01666874       0.00351734
O       -0.00173990       1.35769251       6.10147619  T       0.00000000       0.00000000       0.00000000       0.00660944      -0.00013047       0.01744904
O        0.00000111       4.05052849       6.10263306  F       0.00000000       0.00000000       0.00000000      -0.00971402      -0.05389119       0.07830422
O        3.05359271       4.05438459       3.02679635  F       0.00000000       0.00000000       0.00000000      -0.00021687       0.48057143       0.29182740
O        0.00000000       9.46023072       3.02679635  F       0.00000000       0.00000000       0.00000000      -0.00001420       0.47722099       0.29304385
O        3.05336125       4.05242760       6.10185661  T       0.00000000       0.00000000       0.00000000       0.00055484       0.00740294      -0.00426673
O        3.05359271       1.35146153       3.02679635  F       0.00000000       0.00000000       0.00000000       0.00047504      -0.48145149       0.29432512
O        3.05362709       1.35733966       6.10257732  T       0.00000000       0.00000000       0.00000000      -0.00762366      -0.00146332      -0.00517232
O        0.00000000       4.05438459       3.02679635  F       0.00000000       0.00000000       0.00000000       0.00184525       0.47716237       0.29107148
O        0.00000000       1.35146153       3.02679635  F       0.00000000       0.00000000       0.00000000       0.00059752      -0.47867743       0.29130294
O        9.16077813       1.35146153       3.02679635  F       0.00000000       0.00000000       0.00000000      -0.00052314      -0.47834692       0.29278879
O        9.16077827       4.05052947       6.10263005  F       0.00000000       0.00000000       0.00000000       0.00892341      -0.04456980       0.06937171
O       -0.00057574       6.71499783       9.19217410  T       0.00000000       0.00000000       0.00000000       0.00611626       0.01750492       0.00040208
O        9.15698526       1.31302853       9.17477639  T       0.00000000       0.00000000       0.00000000      -0.01236698      -0.01064127       0.00908306
O        9.16077740       1.35531546       6.10263307  F       0.00000000       0.00000000       0.00000000       0.01148215       0.01940693       0.00281019
O        6.09940255       4.02405421       9.22056381  T       0.00000000       0.00000000       0.00000000      -0.01196083       0.00562313      -0.00719024
O        6.10757278       1.35715042       6.09994718  T       0.00000000       0.00000000       0.00000000       0.00508739       0.00627210       0.00104239
O        6.10868023       4.04737430       6.10923940  T       0.00000000       0.00000000       0.00000000      -0.00588933       0.00718742      -0.00681939
O        6.10718542       1.35146153       3.02679635  F       0.00000000       0.00000000       0.00000000      -0.00139760      -0.47808961       0.29076443
O        6.10718542       4.05438459       3.02679635  F       0.00000000       0.00000000       0.00000000      -0.00032914       0.47862081       0.29326419
O        3.04298557       9.44088272       9.19942860  T       0.00000000       0.00000000       0.00000000       0.00750588      -0.00119871      -0.00684349
O        3.05170598       6.76122210       6.10231625  T       0.00000000       0.00000000       0.00000000       0.00431751       0.00048031      -0.00915940
O        3.05133999       9.45268746       6.10861903  T       0.00000000       0.00000000       0.00000000       0.00179133      -0.00682478       0.00800538
O        3.05359271       6.75730765       3.02679635  F       0.00000000       0.00000000       0.00000000       0.00146912      -0.47655826       0.29117383
O        3.04749493       6.71909998       9.17298799  T       0.00000000       0.00000000       0.00000000      -0.00393297       0.01110141      -0.01101505
O        6.10718542       9.46023072       3.02679635  F       0.00000000       0.00000000       0.00000000      -0.00070139       0.47578949       0.29639818
O        6.10718542       6.75730765       3.02679635  F       0.00000000       0.00000000       0.00000000       0.00067580      -0.47770280       0.29534380
O        6.10647890       9.45748770       6.10410680  T       0.00000000       0.00000000       0.00000000       0.00877904      -0.02643298       0.01568632
O        6.10782665       6.76343273       6.10353765  T       0.00000000       0.00000000       0.00000000       0.00685274      -0.01818762      -0.02864695
O        9.16523680       6.70792796       9.17285841  T       0.00000000       0.00000000       0.00000000       0.00148807       0.01264216       0.02405950
O        9.16360499       9.43593172       9.21620230  T       0.00000000       0.00000000       0.00000000       0.01612914      -0.01104990      -0.01274967
O        9.16239367       6.76309805       6.10450200  T       0.00000000       0.00000000       0.00000000      -0.00656072      -0.00372612      -0.00849416
O        9.16323924       9.45076885       6.11465682  T       0.00000000       0.00000000       0.00000000      -0.00844238       0.00239297      -0.01481461
O        9.16077813       6.75730765       3.02679635  F       0.00000000       0.00000000       0.00000000      -0.00158368      -0.47601915       0.28750753
O        3.05359271       9.46023072       3.02679635  F       0.00000000       0.00000000       0.00000000       0.00147112       0.47806287       0.29523802
O        9.16077813       9.46023072       3.02679635  F       0.00000000       0.00000000       0.00000000      -0.00107858       0.47649719       0.29457811
Pd       3.05359414       2.70292461       4.56516084  F       0.00000000       0.00000000       0.00000000      -0.00035090      -0.00342480       0.17865515
Pd       6.10718542       2.70292306       1.50000000  F       0.00000000       0.00000000       0.00000000       0.00008790       0.00115866      -0.90273838
Pd       3.05359287       8.10876720       4.56515841  F       0.00000000       0.00000000       0.00000000      -0.00745176       0.01042570       0.17804099
Pd       3.13488990       2.32759723      10.97382365  T       0.00000000       0.00000000       0.00000000       0.01850007       0.00724765       0.02806925
Pd       3.04872454       2.71680307       7.65820737  T       0.00000000       0.00000000       0.00000000       0.01420792      -0.01037822       0.01631227
Pd       3.05359271       2.70292306       1.50000000  F       0.00000000       0.00000000       0.00000000      -0.00004513       0.00032864      -0.90116546
Pd       4.58038906       5.40584612       3.02679635  F       0.00000000       0.00000000       0.00000000       0.00044760       0.00077444       0.05255776
Pd       4.58038878       0.00000011       6.09434618  F       0.00000000       0.00000000       0.00000000      -0.03745295       0.00541161       0.06905634
Pd       4.58038808       5.40584530       6.09434913  F       0.00000000       0.00000000       0.00000000       0.01779840      -0.00029149       0.08559314
Pd       7.63398177       0.00000000       3.02679635  F       0.00000000       0.00000000       0.00000000       0.00088396      -0.00152477       0.05117751
Pd       3.05359271       8.10876919       1.50000000  F       0.00000000       0.00000000       0.00000000       0.00007110      -0.00010946      -0.90325912
Pd       6.11243450       8.10076673       7.65351122  T       0.00000000       0.00000000       0.00000000      -0.00178290       0.00874447       0.00897224
Pd       7.63398372      10.81169054       6.09434173  F       0.00000000       0.00000000       0.00000000       0.02105721      -0.03233941       0.07237120
Pd       6.10718498       8.10876457       4.56515665  F       0.00000000       0.00000000       0.00000000       0.00052707       0.01905997       0.13902316
Pd       1.52679863       5.40584339       6.09434623  F       0.00000000       0.00000000       0.00000000      -0.01471434      -0.00493206       0.05543014
Pd       7.63398177       5.40584612       3.02679635  F       0.00000000       0.00000000       0.00000000      -0.00058404       0.00051804       0.05219523
Pd       6.10718542       8.10876919       1.50000000  F       0.00000000       0.00000000       0.00000000       0.00005925       0.00015353      -0.90275303
Pd      -0.00392263       8.09356841       7.67220054  T       0.00000000       0.00000000       0.00000000       0.00987798       0.00546811      -0.02873026
Pd       6.00983339       2.52394534      10.86652349  T       0.00000000       0.00000000       0.00000000      -0.00388315      -0.01077601       0.00949084
Pd       1.53018185       5.37386398       9.13976022  T       0.00000000       0.00000000       0.00000000       0.00005662      -0.01153604      -0.00711319
Pd       7.63735815      -0.04105803       9.12398223  T       0.00000000       0.00000000       0.00000000       0.01394737       0.00263244       0.00523123
Pd       6.11303512       2.69816694       7.66422335  T       0.00000000       0.00000000       0.00000000      -0.00461039      -0.01252728       0.00947451
Pd      12.25767613       8.05075161      10.83422502  T       0.00000000       0.00000000       0.00000000       0.00566694       0.00801871      -0.01069810
Pd       6.10718636       2.70292272       4.56515365  F       0.00000000       0.00000000       0.00000000       0.00489214       0.01814959       0.18465247
Pd       3.04033451       8.09696585       7.66229027  T       0.00000000       0.00000000       0.00000000       0.00082960       0.01258289      -0.00403735
Pd       0.00000286       8.10876728       4.56515590  F       0.00000000       0.00000000       0.00000000      -0.00044163       0.01229264       0.21237699
Pd       4.57868200       5.37256064       9.12142930  T       0.00000000       0.00000000       0.00000000       0.00649191      -0.00783294       0.02636362
Pd       9.16077813       2.70292306       1.50000000  F       0.00000000       0.00000000       0.00000000      -0.00052933       0.00033101      -0.90127621
Pd       3.14711819       8.02955515      10.82945135  T       0.00000000       0.00000000       0.00000000      -0.03651462       0.00360042      -0.01533619
Pd       0.00000000       8.10876919       1.50000000  F       0.00000000       0.00000000       0.00000000      -0.00016209       0.00062542      -0.90329749
Pd       9.08525597       8.03377373      10.82771416  T       0.00000000       0.00000000       0.00000000      -0.00665546      -0.01401069       0.00553708
Pd       1.52679635       0.00000000       3.02679635  F       0.00000000       0.00000000       0.00000000      -0.00016645      -0.00198770       0.05289267
Pd       1.52679635       5.40584612       3.02679635  F       0.00000000       0.00000000       0.00000000      -0.00034691       0.00148661       0.05087589
Pd      10.68757448       0.00000000       3.02679635  F       0.00000000       0.00000000       0.00000000       0.00038584      -0.00266339       0.05551543
Pd      10.69192296       5.36383994       9.17093009  T       0.00000000       0.00000000       0.00000000       0.00631602       0.00836272       0.00207872
Pd       9.16077751       2.70292195       4.56515514  F       0.00000000       0.00000000       0.00000000       0.00136777       0.00499506       0.15710851
Pd      10.68757769      10.81169125       6.09434037  F       0.00000000       0.00000000       0.00000000       0.01723960      -0.05583967       0.07369427
Pd       9.16077986       8.10876364       4.56515811  F       0.00000000       0.00000000       0.00000000       0.00677099       0.02081834       0.22241254
Pd       1.52679695      10.81169175       6.09434358  F       0.00000000       0.00000000       0.00000000      -0.01751519      -0.01497920       0.08157773
Pd       9.17044080       8.09473331       7.66831111  T       0.00000000       0.00000000       0.00000000       0.01400434       0.00311024      -0.00728891
Pd       9.16865018       2.69485353       7.66189166  T       0.00000000       0.00000000       0.00000000      -0.01042219      -0.01266001      -0.02784623
Pd      10.68764059      -0.02704135       9.17509411  T       0.00000000       0.00000000       0.00000000      -0.00327989      -0.00300636      -0.02098946
Pd       0.00000037       2.70292295       4.56515782  F       0.00000000       0.00000000       0.00000000      -0.00638784       0.01352088       0.15583279
Pd       1.52025644      10.77802882       9.13598048  T       0.00000000       0.00000000       0.00000000      -0.00160164      -0.00073036       0.00220620
Pd       8.83690618       2.63671322      10.79310873  T       0.00000000       0.00000000       0.00000000      -0.02196563       0.01170305      -0.00928708
Pd       6.04435149       7.96010465      10.81451168  T       0.00000000       0.00000000       0.00000000      -0.02149114      -0.02659239       0.02519823
Pd      12.20819034       2.69642908       7.66330037  T       0.00000000       0.00000000       0.00000000      -0.00956535      -0.00525041      -0.00426636
Pd      10.68757879       5.40584476       6.09434230  F       0.00000000       0.00000000       0.00000000       0.00645604      -0.01847863       0.04070475
Pd       9.16077813       8.10876919       1.50000000  F       0.00000000       0.00000000       0.00000000       0.00005316       0.00070965      -0.90432096
Pd      10.68757448       5.40584612       3.02679635  F       0.00000000       0.00000000       0.00000000       0.00044705       0.00152463       0.05214879
Pd      12.57850558       2.61877645      10.80619196  T       0.00000000       0.00000000       0.00000000       0.00269216       0.00938733      -0.00749987
Pd       4.57665301      10.76751072       9.11341651  T       0.00000000       0.00000000       0.00000000      -0.00127230       0.02969988       0.00210300
Pd       7.63398212       5.40584800       6.09434442  F       0.00000000       0.00000000       0.00000000       0.00607509      -0.00864820       0.07463398
Pd       7.63371398       5.36694476       9.14778873  T       0.00000000       0.00000000       0.00000000       0.00291768      -0.00509031      -0.00752760
Pd       4.58038906       0.00000000       3.02679635  F       0.00000000       0.00000000       0.00000000      -0.00118489      -0.00131857       0.05080562
Pd       0.00000000       2.70292306       1.50000000  F       0.00000000       0.00000000       0.00000000       0.00047519       0.00045355      -0.90040892
C        3.24028640       2.86146550      12.69968745  T       0.00000000       0.00000000       0.00000000       0.01102780       0.00960426      -0.03539732
O        3.32528554       3.17084838      13.82140224  T       0.00000000       0.00000000       0.00000000      -0.01043001       0.01348059       0.00420200
O        5.73810810      -1.75545650      12.40695118  T       0.00000000       0.00000000       0.00000000       0.00898837       0.02703450      -0.00530614
C        6.31923056      -0.48923095      12.57610300  T       0.00000000       0.00000000       0.00000000      -0.00074773       0.03266146       0.00726538
H        6.06839048      -0.13087770      13.59378671  T       0.00000000       0.00000000       0.00000000       0.00228324       0.01508996       0.01240118
H        7.42792136      -0.49496754      12.46274675  T       0.00000000       0.00000000       0.00000000      -0.02204109      -0.00261605      -0.00050566
H        5.92543552       0.27872572      11.84372670  T       0.00000000       0.00000000       0.00000000       0.01521342      -0.01403614       0.00841172
