111
Lattice="12.21437083684855 0.0 7e-16 1.7e-15 10.811692246786171 7e-16 0.0 0.0 29.250333490173453" Properties=species:S:1:pos:R:3:move_mask:L:1:momenta:R:3:forces:R:3 idx=2330 E_MACE=-575.1149971713518 d_min=1.9188330377848948 d_reactive=4.085458518030336 rank=1 dE_rel_meV=6.892604731433494 converged=T energy=-575.1149971713518 stress="0.001634329772149736 -0.0005134098298669645 -9.527756912993471e-05 -0.0005134098298669645 -0.0001358250564669249 6.739944174343092e-05 -9.527756912993471e-05 6.739944174343092e-05 -0.003768128824721228" pbc="T T T"
O        6.09335563       1.33781386       9.22540117  T       0.00000000       0.00000000       0.00000000       0.00797802      -0.00689308      -0.00750742
O        9.16077813       4.05438459       3.02679635  F       0.00000000       0.00000000       0.00000000      -0.00041470       0.48096552       0.28409482
O        6.10397990       6.75217132       9.19879684  T       0.00000000       0.00000000       0.00000000      -0.01598972      -0.01457840      -0.00419726
O        6.07799672       9.46241070       9.22894557  T       0.00000000       0.00000000       0.00000000       0.00377357       0.00624116       0.00572119
O        9.13710779       4.06254691       9.16444025  T       0.00000000       0.00000000       0.00000000      -0.01011185      -0.02955078      -0.00830335
O        3.02467874       1.39136285       9.27030897  T       0.00000000       0.00000000       0.00000000       0.01466423      -0.01271861      -0.00959469
O        0.00000000       6.75730765       3.02679635  F       0.00000000       0.00000000       0.00000000      -0.00153268      -0.48465984       0.30993619
O        3.03872034       4.09666122       9.13571107  T       0.00000000       0.00000000       0.00000000       0.01319019      -0.00520974      -0.00667950
O        0.00266793       9.46783343       6.08944967  T       0.00000000       0.00000000       0.00000000       0.00297134      -0.00286949      -0.01077504
O        0.00000210       6.76116167       6.10263319  F       0.00000000       0.00000000       0.00000000       0.00650092       0.11165121      -0.04167138
O       12.21728772       9.48045628       9.19972304  T       0.00000000       0.00000000       0.00000000      -0.00408542      -0.00275689       0.02427407
O       12.16652189       1.37577020       9.22820949  T       0.00000000       0.00000000       0.00000000      -0.02062619      -0.00646230      -0.02243872
O       12.20131735       4.09632288       9.02325029  T       0.00000000       0.00000000       0.00000000       0.00528824      -0.00802396       0.00094365
O       -0.00150840       1.34356687       6.09302367  T       0.00000000       0.00000000       0.00000000       0.00020980       0.01982030      -0.00311923
O        0.00000111       4.05052849       6.10263306  F       0.00000000       0.00000000       0.00000000       0.00457096      -0.08981194      -0.10969348
O        3.05359271       4.05438459       3.02679635  F       0.00000000       0.00000000       0.00000000      -0.00046326       0.47522916       0.29214995
O        0.00000000       9.46023072       3.02679635  F       0.00000000       0.00000000       0.00000000       0.00088900       0.47765955       0.29332337
O        3.05501554       4.04528106       6.10382382  T       0.00000000       0.00000000       0.00000000      -0.00214052       0.00969918      -0.01247518
O        3.05359271       1.35146153       3.02679635  F       0.00000000       0.00000000       0.00000000      -0.00133706      -0.47390054       0.29095943
O        3.05436497       1.35872799       6.11254403  T       0.00000000       0.00000000       0.00000000       0.00811383      -0.00822216       0.00175084
O        0.00000000       4.05438459       3.02679635  F       0.00000000       0.00000000       0.00000000      -0.00022692       0.48453206       0.30900185
O        0.00000000       1.35146153       3.02679635  F       0.00000000       0.00000000       0.00000000      -0.00154751      -0.47635748       0.29493297
O        9.16077813       1.35146153       3.02679635  F       0.00000000       0.00000000       0.00000000      -0.00011401      -0.48232633       0.27761326
O        9.16077827       4.05052947       6.10263005  F       0.00000000       0.00000000       0.00000000      -0.01713329      -0.09283177       0.16645246
O       -0.01458161       6.74684680       9.05963438  T       0.00000000       0.00000000       0.00000000       0.00872359      -0.00545152      -0.00381757
O        9.14439275       1.31313087       9.17736171  T       0.00000000       0.00000000       0.00000000      -0.00340854      -0.00969980       0.01785451
O        9.16077740       1.35531546       6.10263307  F       0.00000000       0.00000000       0.00000000      -0.02804478       0.02907010       0.12517938
O        6.06571920       4.04751170       9.20917103  T       0.00000000       0.00000000       0.00000000       0.00384580       0.01035891      -0.02583905
O        6.10788171       1.35743241       6.11019170  T       0.00000000       0.00000000       0.00000000      -0.00906631      -0.00000022      -0.02047128
O        6.10510991       4.04323002       6.11420178  T       0.00000000       0.00000000       0.00000000       0.00082509      -0.00600851      -0.01099534
O        6.10718542       1.35146153       3.02679635  F       0.00000000       0.00000000       0.00000000       0.00200185      -0.47157131       0.28679874
O        6.10718542       4.05438459       3.02679635  F       0.00000000       0.00000000       0.00000000      -0.00046062       0.47314382       0.29372926
O        3.01917773       9.49365244       9.22624065  T       0.00000000       0.00000000       0.00000000      -0.00116221       0.02368194      -0.01487192
O        3.05416871       6.76956433       6.11268193  T       0.00000000       0.00000000       0.00000000       0.01244838      -0.00381029      -0.00875188
O        3.05417432       9.45777751       6.10612350  T       0.00000000       0.00000000       0.00000000       0.00053519       0.00929992      -0.01271095
O        3.05359271       6.75730765       3.02679635  F       0.00000000       0.00000000       0.00000000      -0.00033552      -0.47662937       0.29760813
O        3.04744121       6.76790100       9.17849543  T       0.00000000       0.00000000       0.00000000      -0.00070995      -0.00759361      -0.01062905
O        6.10718542       9.46023072       3.02679635  F       0.00000000       0.00000000       0.00000000       0.00089785       0.47330422       0.28630068
O        6.10718542       6.75730765       3.02679635  F       0.00000000       0.00000000       0.00000000       0.00266693      -0.47484855       0.29095348
O        6.10291610       9.45369945       6.11131279  T       0.00000000       0.00000000       0.00000000      -0.00259412      -0.02480652      -0.00954050
O        6.10476651       6.76726312       6.11323854  T       0.00000000       0.00000000       0.00000000      -0.00274405       0.00859704      -0.01246845
O        9.12663990       6.72949547       9.13156097  T       0.00000000       0.00000000       0.00000000       0.01186254       0.01082062      -0.00119187
O        9.16819896       9.43632416       9.21767219  T       0.00000000       0.00000000       0.00000000      -0.00240644      -0.00573485       0.01812062
O        9.15745944       6.76285250       6.09892294  T       0.00000000       0.00000000       0.00000000      -0.00148331       0.00007333       0.01370809
O        9.15944759       9.45528277       6.10588789  T       0.00000000       0.00000000       0.00000000      -0.00658559       0.00987231       0.00082658
O        9.16077813       6.75730765       3.02679635  F       0.00000000       0.00000000       0.00000000       0.00045515      -0.47684261       0.29623679
O        3.05359271       9.46023072       3.02679635  F       0.00000000       0.00000000       0.00000000      -0.00118746       0.47272579       0.28520665
O        9.16077813       9.46023072       3.02679635  F       0.00000000       0.00000000       0.00000000       0.00263068       0.47479894       0.29713221
Pd       3.05359414       2.70292461       4.56516084  F       0.00000000       0.00000000       0.00000000       0.00515001      -0.04197745       0.20262228
Pd       6.10718542       2.70292306       1.50000000  F       0.00000000       0.00000000       0.00000000      -0.00043735      -0.00037241      -0.90465624
Pd       3.05359287       8.10876720       4.56515841  F       0.00000000       0.00000000       0.00000000       0.00688235       0.01342648       0.22868193
Pd       2.76609514       2.70277295      10.86062948  T       0.00000000       0.00000000       0.00000000       0.00188316      -0.03138919      -0.00297394
Pd       3.05760086       2.70624085       7.66963308  T       0.00000000       0.00000000       0.00000000       0.01523851      -0.01253268       0.03116383
Pd       3.05359271       2.70292306       1.50000000  F       0.00000000       0.00000000       0.00000000       0.00047936      -0.00232443      -0.90464908
Pd       4.58038906       5.40584612       3.02679635  F       0.00000000       0.00000000       0.00000000       0.00094973       0.00005546       0.06628781
Pd       4.58038878       0.00000011       6.09434618  F       0.00000000       0.00000000       0.00000000       0.00501841       0.04108606       0.08379413
Pd       4.58038808       5.40584530       6.09434913  F       0.00000000       0.00000000       0.00000000       0.01359894       0.02219495       0.09164100
Pd       7.63398177       0.00000000       3.02679635  F       0.00000000       0.00000000       0.00000000      -0.00061073      -0.00105125       0.05846017
Pd       3.05359271       8.10876919       1.50000000  F       0.00000000       0.00000000       0.00000000      -0.00000669       0.00116075      -0.90481376
Pd       6.08358219       8.11485711       7.67945482  T       0.00000000       0.00000000       0.00000000       0.00368019       0.02881464       0.00968561
Pd       7.63398372      10.81169054       6.09434173  F       0.00000000       0.00000000       0.00000000       0.00015842      -0.00964885       0.06639212
Pd       6.10718498       8.10876457       4.56515665  F       0.00000000       0.00000000       0.00000000      -0.01655205       0.01251093       0.28511901
Pd       1.52679863       5.40584339       6.09434623  F       0.00000000       0.00000000       0.00000000       0.07387496       0.02791977       0.05554042
Pd       7.63398177       5.40584612       3.02679635  F       0.00000000       0.00000000       0.00000000      -0.00064716       0.00012221       0.06011286
Pd       6.10718542       8.10876919       1.50000000  F       0.00000000       0.00000000       0.00000000       0.00034111       0.00053497      -0.90522133
Pd       0.00371912       8.14801477       7.63980392  T       0.00000000       0.00000000       0.00000000      -0.00098192      -0.00776021       0.01319120
Pd       5.64534877       2.69748110      10.78576920  T       0.00000000       0.00000000       0.00000000      -0.02260727       0.00377386      -0.01140842
Pd       1.52474413       5.43384030       9.03823591  T       0.00000000       0.00000000       0.00000000       0.00338241       0.01890520       0.00833917
Pd       7.62787076      -0.00360716       9.14180695  T       0.00000000       0.00000000       0.00000000      -0.00520093      -0.00457883       0.00369093
Pd       6.09576190       2.68968221       7.67656619  T       0.00000000       0.00000000       0.00000000       0.00853084       0.03829472      -0.01897946
Pd      12.20546938       7.85620023      10.81552795  T       0.00000000       0.00000000       0.00000000      -0.00118329      -0.00122620       0.00263348
Pd       6.10718636       2.70292272       4.56515365  F       0.00000000       0.00000000       0.00000000      -0.00055363      -0.00909762       0.28243443
Pd       3.05712157       8.13370177       7.66937573  T       0.00000000       0.00000000       0.00000000      -0.01587178       0.01300616       0.00710591
Pd       0.00000286       8.10876728       4.56515590  F       0.00000000       0.00000000       0.00000000       0.00694237      -0.00939276       0.08757012
Pd       4.57108592       5.42501006       9.14388632  T       0.00000000       0.00000000       0.00000000       0.00429032       0.00732253      -0.00316464
Pd       9.16077813       2.70292306       1.50000000  F       0.00000000       0.00000000       0.00000000      -0.00003756      -0.00108600      -0.89825756
Pd       2.74362488       8.08693748      10.80792171  T       0.00000000       0.00000000       0.00000000       0.01610950       0.00608633       0.01311488
Pd       0.00000000       8.10876919       1.50000000  F       0.00000000       0.00000000       0.00000000      -0.00015907       0.00154130      -0.90118607
Pd       9.34749097       8.13964606      10.83806677  T       0.00000000       0.00000000       0.00000000      -0.00235718      -0.02006277      -0.00422889
Pd       1.52679635       0.00000000       3.02679635  F       0.00000000       0.00000000       0.00000000       0.00485254       0.00121591       0.04812461
Pd       1.52679635       5.40584612       3.02679635  F       0.00000000       0.00000000       0.00000000      -0.00091686       0.00094956       0.04933160
Pd      10.68757448       0.00000000       3.02679635  F       0.00000000       0.00000000       0.00000000      -0.00424394      -0.00016744       0.04669999
Pd      10.64459732       5.39117791       9.03301025  T       0.00000000       0.00000000       0.00000000      -0.01744863       0.00158063      -0.00251780
Pd       9.16077751       2.70292195       4.56515514  F       0.00000000       0.00000000       0.00000000       0.00001195       0.00426911       0.34426349
Pd      10.68757769      10.81169125       6.09434037  F       0.00000000       0.00000000       0.00000000      -0.11418651      -0.00074340       0.00712594
Pd       9.16077986       8.10876364       4.56515811  F       0.00000000       0.00000000       0.00000000      -0.01151671       0.03065028       0.13132777
Pd       1.52679695      10.81169175       6.09434358  F       0.00000000       0.00000000       0.00000000       0.09689464       0.05936050       0.04120650
Pd       9.14180997       8.10679391       7.65548786  T       0.00000000       0.00000000       0.00000000       0.00476321      -0.01511577      -0.00898976
Pd       9.14520280       2.68634103       7.70885209  T       0.00000000       0.00000000       0.00000000       0.00557550       0.02549890      -0.00280538
Pd      10.66795601       0.00781718       9.11302631  T       0.00000000       0.00000000       0.00000000       0.02697208      -0.00053506      -0.01923613
Pd       0.00000037       2.70292295       4.56515782  F       0.00000000       0.00000000       0.00000000       0.00178367      -0.01050635       0.12303171
Pd       1.49538263      10.84487348       9.17970823  T       0.00000000       0.00000000       0.00000000       0.00358412      -0.02327473      -0.01077051
Pd      11.44855175       5.53959262      11.98210160  T       0.00000000       0.00000000       0.00000000       0.00302740      -0.01592484      -0.00249010
Pd       6.43833448       8.07305809      10.83107295  T       0.00000000       0.00000000       0.00000000       0.02312102       0.00278660       0.00481141
Pd      12.19697906       2.67703381       7.64110807  T       0.00000000       0.00000000       0.00000000      -0.00708143      -0.00734584      -0.00722353
Pd      10.68757879       5.40584476       6.09434230  F       0.00000000       0.00000000       0.00000000      -0.07502864      -0.01186487       0.03443556
Pd       9.16077813       8.10876919       1.50000000  F       0.00000000       0.00000000       0.00000000      -0.00036669       0.00186589      -0.90265816
Pd      10.68757448       5.40584612       3.02679635  F       0.00000000       0.00000000       0.00000000       0.00209533       0.00022754       0.05345604
Pd      12.21384812       2.98226160      10.88395499  T       0.00000000       0.00000000       0.00000000      -0.00787341      -0.00839035       0.00372488
Pd       4.55807024      10.81866327       9.20713847  T       0.00000000       0.00000000       0.00000000      -0.01233483      -0.00632965      -0.00396381
Pd       7.63398212       5.40584800       6.09434442  F       0.00000000       0.00000000       0.00000000      -0.05043519      -0.03878715       0.04271093
Pd       7.61374050       5.37009858       9.08722691  T       0.00000000       0.00000000       0.00000000       0.02534216      -0.00538204       0.00029038
Pd       4.58038906       0.00000000       3.02679635  F       0.00000000       0.00000000       0.00000000       0.00136545       0.00170102       0.05882230
Pd       0.00000000       2.70292306       1.50000000  F       0.00000000       0.00000000       0.00000000       0.00006717      -0.00216817      -0.90053132
C       13.01240072       4.42861467      11.93710579  T       0.00000000       0.00000000       0.00000000      -0.03516277       0.00069734       0.02281735
O       14.17778964       4.36473055      12.30310299  T       0.00000000       0.00000000       0.00000000       0.01990469       0.00862090      -0.02653176
O        9.64113607       6.70912590      12.29039673  T       0.00000000       0.00000000       0.00000000       0.03609376       0.00286335      -0.00842524
C        8.46106937       5.97122417      12.62421654  T       0.00000000       0.00000000       0.00000000      -0.01325997       0.01290944       0.00488375
H        8.25759241       6.06408853      13.70855423  T       0.00000000       0.00000000       0.00000000       0.02065042      -0.01112692      -0.00266824
H        7.57668376       6.37969700      12.06515673  T       0.00000000       0.00000000       0.00000000       0.01294096       0.01994431       0.00253383
H        8.55770920       4.90452041      12.34732762  T       0.00000000       0.00000000       0.00000000      -0.01762559      -0.00310895      -0.01189421
