111
Lattice="12.21437083684855 0.0 7e-16 1.7e-15 10.811692246786171 7e-16 0.0 0.0 29.250333490173453" Properties=species:S:1:pos:R:3:move_mask:L:1:momenta:R:3:forces:R:3 idx=454 E_MACE=-574.3332047524673 d_min=1.8088323704523877 d_reactive=5.172202975122301 rank=1884 dE_rel_meV=788.6850236159262 converged=T energy=-574.3332047524673 stress="0.0018921042400125172 -2.7407723510510404e-05 3.903453864575663e-05 -2.7407723510510404e-05 -0.0007901623070885079 8.445523934345597e-06 3.903453864575663e-05 8.445523934345597e-06 -0.004072363190601362" pbc="T T T"
O        6.11497171       1.33518261       9.17256054  T       0.00000000       0.00000000       0.00000000       0.02096491      -0.02745904       0.00809793
O        9.16077813       4.05438459       3.02679635  F       0.00000000       0.00000000       0.00000000      -0.00028409       0.47750392       0.29012992
O        6.13704316       6.74682768       9.18903943  T       0.00000000       0.00000000       0.00000000      -0.00911890      -0.01461696      -0.01604813
O        6.12033583       9.45841242       9.18261328  T       0.00000000       0.00000000       0.00000000      -0.00378071       0.01204749       0.01412923
O        9.16687262       4.04823389       9.21050869  T       0.00000000       0.00000000       0.00000000      -0.00085094      -0.00178342      -0.00983456
O        3.06668001       1.35118593       9.17787081  T       0.00000000       0.00000000       0.00000000       0.01158467       0.01832178       0.00415908
O        0.00000000       6.75730765       3.02679635  F       0.00000000       0.00000000       0.00000000       0.00104589      -0.47581521       0.28991273
O        3.06741037       4.08131157       9.11626659  T       0.00000000       0.00000000       0.00000000       0.00106185      -0.01422516      -0.01668932
O       -0.00135910       9.45268766       6.10743214  T       0.00000000       0.00000000       0.00000000       0.00550067      -0.01043429       0.02120882
O        0.00000210       6.76116167       6.10263319  F       0.00000000       0.00000000       0.00000000      -0.02123412       0.04323268       0.05366773
O       12.22804807       9.45879166       9.20253685  T       0.00000000       0.00000000       0.00000000      -0.00196959       0.02479464       0.00131408
O       12.22980913       1.33480517       9.19415243  T       0.00000000       0.00000000       0.00000000      -0.01814258      -0.01279083       0.00815618
O       12.23032047       4.04264797       9.21241122  T       0.00000000       0.00000000       0.00000000       0.01438887       0.02134587       0.00068125
O       -0.00019789       1.35691262       6.10578520  T       0.00000000       0.00000000       0.00000000      -0.00870710       0.01887622       0.00361465
O        0.00000111       4.05052849       6.10263306  F       0.00000000       0.00000000       0.00000000      -0.01525784      -0.06687543       0.06454014
O        3.05359271       4.05438459       3.02679635  F       0.00000000       0.00000000       0.00000000      -0.00061881       0.48207418       0.29368571
O        0.00000000       9.46023072       3.02679635  F       0.00000000       0.00000000       0.00000000       0.00031142       0.47730876       0.29308102
O        3.05514103       4.05271635       6.09644969  T       0.00000000       0.00000000       0.00000000      -0.01087051      -0.02040534       0.00294734
O        3.05359271       1.35146153       3.02679635  F       0.00000000       0.00000000       0.00000000      -0.00132456      -0.48043571       0.29759770
O        3.05435774       1.35308060       6.10399477  T       0.00000000       0.00000000       0.00000000      -0.00288309       0.01767541      -0.02163747
O        0.00000000       4.05438459       3.02679635  F       0.00000000       0.00000000       0.00000000       0.00094966       0.47718645       0.29067724
O        0.00000000       1.35146153       3.02679635  F       0.00000000       0.00000000       0.00000000       0.00078527      -0.47835610       0.29235429
O        9.16077813       1.35146153       3.02679635  F       0.00000000       0.00000000       0.00000000      -0.00038905      -0.47832449       0.29088516
O        9.16077827       4.05052947       6.10263005  F       0.00000000       0.00000000       0.00000000       0.00794766      -0.05337987       0.06724799
O       -0.00240154       6.73710668       9.19745659  T       0.00000000       0.00000000       0.00000000       0.00157322      -0.00913530      -0.01052160
O        9.17026052       1.33348113       9.19933030  T       0.00000000       0.00000000       0.00000000      -0.00035434       0.01859452      -0.00464008
O        9.16077740       1.35531546       6.10263307  F       0.00000000       0.00000000       0.00000000       0.00985214       0.03328866       0.03851822
O        6.11542837       4.05695782       9.19783413  T       0.00000000       0.00000000       0.00000000      -0.01275767       0.02348355      -0.01867929
O        6.10930526       1.35776204       6.10608331  T       0.00000000       0.00000000       0.00000000      -0.00699339       0.00986543      -0.00629667
O        6.11012599       4.04829904       6.10424135  T       0.00000000       0.00000000       0.00000000      -0.01115841      -0.00198380       0.00933852
O        6.10718542       1.35146153       3.02679635  F       0.00000000       0.00000000       0.00000000      -0.00173176      -0.47774143       0.29307089
O        6.10718542       4.05438459       3.02679635  F       0.00000000       0.00000000       0.00000000      -0.00144246       0.47818022       0.29130657
O        3.06619960       9.44962855       9.18727577  T       0.00000000       0.00000000       0.00000000      -0.00216000       0.01490617       0.00196477
O        3.05271348       6.76147233       6.09969073  T       0.00000000       0.00000000       0.00000000      -0.00071435       0.02478623       0.02164043
O        3.05378918       9.46023759       6.09996183  T       0.00000000       0.00000000       0.00000000      -0.00403846      -0.02083798      -0.00430237
O        3.05359271       6.75730765       3.02679635  F       0.00000000       0.00000000       0.00000000      -0.00024672      -0.47961738       0.29885109
O        3.05345632       6.74572856       9.14991773  T       0.00000000       0.00000000       0.00000000      -0.01150183       0.00975383      -0.01627193
O        6.10718542       9.46023072       3.02679635  F       0.00000000       0.00000000       0.00000000      -0.00261822       0.47681763       0.29303427
O        6.10718542       6.75730765       3.02679635  F       0.00000000       0.00000000       0.00000000      -0.00172389      -0.47794596       0.29131983
O        6.10984625       9.45407935       6.10511203  T       0.00000000       0.00000000       0.00000000      -0.00541481      -0.00603237       0.01705707
O        6.11106421       6.76340739       6.10498644  T       0.00000000       0.00000000       0.00000000      -0.00820993       0.00212489       0.00211739
O        9.17609784       6.73950904       9.20320611  T       0.00000000       0.00000000       0.00000000      -0.01637112      -0.00461083       0.00508057
O        9.16693543       9.46268244       9.20533799  T       0.00000000       0.00000000       0.00000000      -0.00550435      -0.01341669       0.02437316
O        9.16205666       6.76462179       6.11003665  T       0.00000000       0.00000000       0.00000000       0.00026771       0.00090642      -0.01561610
O        9.16096192       9.45234937       6.10904035  T       0.00000000       0.00000000       0.00000000       0.00530510      -0.00711488       0.01021815
O        9.16077813       6.75730765       3.02679635  F       0.00000000       0.00000000       0.00000000      -0.00015299      -0.47593741       0.29012980
O        3.05359271       9.46023072       3.02679635  F       0.00000000       0.00000000       0.00000000       0.00050658       0.47741361       0.29597258
O        9.16077813       9.46023072       3.02679635  F       0.00000000       0.00000000       0.00000000      -0.00103620       0.47605176       0.28956884
Pd       3.05359414       2.70292461       4.56516084  F       0.00000000       0.00000000       0.00000000       0.00419443      -0.03284117       0.14742326
Pd       6.10718542       2.70292306       1.50000000  F       0.00000000       0.00000000       0.00000000       0.00004020      -0.00006053      -0.90282484
Pd       3.05359287       8.10876720       4.56515841  F       0.00000000       0.00000000       0.00000000      -0.00100938       0.01078508       0.10836374
Pd       3.18708383       2.51032264      10.93081671  T       0.00000000       0.00000000       0.00000000      -0.02052236      -0.01956596      -0.01622666
Pd       3.05808652       2.71357761       7.64998570  T       0.00000000       0.00000000       0.00000000      -0.01168283       0.00155236       0.02670695
Pd       3.05359271       2.70292306       1.50000000  F       0.00000000       0.00000000       0.00000000      -0.00004441      -0.00104423      -0.90127598
Pd       4.58038906       5.40584612       3.02679635  F       0.00000000       0.00000000       0.00000000       0.00113289       0.00055533       0.05226753
Pd       4.58038878       0.00000011       6.09434618  F       0.00000000       0.00000000       0.00000000       0.05422314       0.02444762       0.06867248
Pd       4.58038808       5.40584530       6.09434913  F       0.00000000       0.00000000       0.00000000       0.06157718       0.03051442       0.06616865
Pd       7.63398177       0.00000000       3.02679635  F       0.00000000       0.00000000       0.00000000       0.00048583      -0.00053640       0.05423164
Pd       3.05359271       8.10876919       1.50000000  F       0.00000000       0.00000000       0.00000000       0.00020621       0.00042971      -0.90134450
Pd       6.13049058       8.10684174       7.66206446  T       0.00000000       0.00000000       0.00000000      -0.00281953       0.00226772      -0.00495545
Pd       7.63398372      10.81169054       6.09434173  F       0.00000000       0.00000000       0.00000000       0.01454882      -0.01548949       0.06785650
Pd       6.10718498       8.10876457       4.56515665  F       0.00000000       0.00000000       0.00000000       0.01372598       0.00199134       0.17423834
Pd       1.52679863       5.40584339       6.09434623  F       0.00000000       0.00000000       0.00000000      -0.01213081       0.00826881       0.04724393
Pd       7.63398177       5.40584612       3.02679635  F       0.00000000       0.00000000       0.00000000       0.00040155       0.00113278       0.05323242
Pd       6.10718542       8.10876919       1.50000000  F       0.00000000       0.00000000       0.00000000       0.00007681       0.00029135      -0.90205308
Pd      -0.00663472       8.10401797       7.66700741  T       0.00000000       0.00000000       0.00000000       0.01195588      -0.00426511      -0.01618493
Pd       6.05008458       2.66630452      10.85866214  T       0.00000000       0.00000000       0.00000000       0.01340342      -0.00622762       0.00756018
Pd       1.52928255       5.39520678       9.11350534  T       0.00000000       0.00000000       0.00000000       0.01598641      -0.01160906       0.01574469
Pd       7.64160378      -0.00704508       9.15038349  T       0.00000000       0.00000000       0.00000000       0.01761349      -0.01351285      -0.02276851
Pd       6.12282441       2.70563615       7.66472988  T       0.00000000       0.00000000       0.00000000       0.00011708      -0.00690780      -0.01333713
Pd      12.26571729       8.07793271      10.82790163  T       0.00000000       0.00000000       0.00000000       0.01542502      -0.00485170       0.01629180
Pd       6.10718636       2.70292272       4.56515365  F       0.00000000       0.00000000       0.00000000       0.00896534      -0.00832790       0.18620960
Pd       3.05212617       8.11714536       7.64838032  T       0.00000000       0.00000000       0.00000000      -0.00501932       0.00553999      -0.01881056
Pd       0.00000286       8.10876728       4.56515590  F       0.00000000       0.00000000       0.00000000      -0.00411704       0.00280049       0.18135947
Pd       4.59667733       5.40136407       9.10429457  T       0.00000000       0.00000000       0.00000000      -0.02170661      -0.00262261       0.00101071
Pd       9.16077813       2.70292306       1.50000000  F       0.00000000       0.00000000       0.00000000      -0.00035743       0.00018200      -0.90101431
Pd       3.14131176       7.92029022      10.82303913  T       0.00000000       0.00000000       0.00000000       0.00433358       0.01407249       0.00141808
Pd       0.00000000       8.10876919       1.50000000  F       0.00000000       0.00000000       0.00000000      -0.00023567       0.00048945      -0.90223904
Pd       9.15448607       8.09897987      10.83197259  T       0.00000000       0.00000000       0.00000000       0.00181648      -0.00523432      -0.00638881
Pd       1.52679635       0.00000000       3.02679635  F       0.00000000       0.00000000       0.00000000      -0.00136969       0.00007066       0.05108548
Pd       1.52679635       5.40584612       3.02679635  F       0.00000000       0.00000000       0.00000000      -0.00087131       0.00026936       0.05048773
Pd      10.68757448       0.00000000       3.02679635  F       0.00000000       0.00000000       0.00000000      -0.00036005      -0.00121225       0.05354062
Pd      10.69713570       5.38580454       9.17712893  T       0.00000000       0.00000000       0.00000000      -0.01226488       0.00437840      -0.00456568
Pd       9.16077751       2.70292195       4.56515514  F       0.00000000       0.00000000       0.00000000       0.00190149       0.00318247       0.16369400
Pd      10.68757769      10.81169125       6.09434037  F       0.00000000       0.00000000       0.00000000       0.00091221      -0.02355668       0.06712644
Pd       9.16077986       8.10876364       4.56515811  F       0.00000000       0.00000000       0.00000000       0.00340818      -0.00453533       0.23040805
Pd       1.52679695      10.81169175       6.09434358  F       0.00000000       0.00000000       0.00000000      -0.03353745       0.01095502       0.07852049
Pd       9.16999058       8.10558159       7.67124434  T       0.00000000       0.00000000       0.00000000       0.00140088      -0.00575485      -0.01891871
Pd       9.16875734       2.69829884       7.66529531  T       0.00000000       0.00000000       0.00000000      -0.00197137      -0.00050249      -0.01717039
Pd      10.69949204      -0.00866081       9.17228927  T       0.00000000       0.00000000       0.00000000      -0.00513295       0.02018971      -0.01138084
Pd       0.00000037       2.70292295       4.56515782  F       0.00000000       0.00000000       0.00000000      -0.00368154      -0.00076513       0.18539800
Pd       1.53932181      10.79628361       9.13510650  T       0.00000000       0.00000000       0.00000000       0.00090730      -0.01206766       0.00216011
Pd       8.96350156       2.68942050      10.81631882  T       0.00000000       0.00000000       0.00000000      -0.04153280      -0.01763795      -0.00271308
Pd       5.93783026       8.02158436      10.84742863  T       0.00000000       0.00000000       0.00000000      -0.00594794       0.02511479       0.02523923
Pd      12.21140403       2.69830337       7.66551169  T       0.00000000       0.00000000       0.00000000       0.00041279       0.01978598      -0.01706823
Pd      10.68757879       5.40584476       6.09434230  F       0.00000000       0.00000000       0.00000000      -0.00463335       0.00067742       0.05111220
Pd       9.16077813       8.10876919       1.50000000  F       0.00000000       0.00000000       0.00000000       0.00008903       0.00009725      -0.90418697
Pd      10.68757448       5.40584612       3.02679635  F       0.00000000       0.00000000       0.00000000      -0.00077018       0.00143229       0.05323994
Pd      12.55016463       2.66584734      10.81495318  T       0.00000000       0.00000000       0.00000000       0.01942125      -0.00752675       0.00066135
Pd       4.59332716      10.79855009       9.10802928  T       0.00000000       0.00000000       0.00000000      -0.02033409       0.00309292       0.00092014
Pd       7.63398212       5.40584800       6.09434442  F       0.00000000       0.00000000       0.00000000       0.03197180       0.01558298       0.06881209
Pd       7.64927175       5.39585643       9.15907493  T       0.00000000       0.00000000       0.00000000      -0.00381525      -0.00101905      -0.01270696
Pd       4.58038906       0.00000000       3.02679635  F       0.00000000       0.00000000       0.00000000       0.00082897       0.00027453       0.04663537
Pd       0.00000000       2.70292306       1.50000000  F       0.00000000       0.00000000       0.00000000       0.00052364      -0.00006659      -0.90187271
C        3.34942942       3.40805882      12.49273483  T       0.00000000       0.00000000       0.00000000      -0.01071785      -0.01396573       0.00546160
O        3.45977942       4.05979215      13.45399688  T       0.00000000       0.00000000       0.00000000      -0.00010694      -0.00365518       0.01779014
O        3.33526325       9.04788580      12.43535370  T       0.00000000       0.00000000       0.00000000       0.01650825       0.00047833       0.00519198
C        4.52482756       9.75117267      12.50910341  T       0.00000000       0.00000000       0.00000000       0.00943996       0.01297751       0.00380330
H        4.65829438      10.16998491      13.52783378  T       0.00000000       0.00000000       0.00000000      -0.00113623      -0.01698409       0.01210071
H        5.48730252       9.08718948      12.37874412  T       0.00000000       0.00000000       0.00000000      -0.00236027       0.00786288       0.01659310
H        4.62087105      10.56720814      11.75158020  T       0.00000000       0.00000000       0.00000000       0.00975116       0.00333860       0.01291251
