111
Lattice="12.21437083684855 0.0 7e-16 1.7e-15 10.811692246786171 7e-16 0.0 0.0 29.250333490173453" Properties=species:S:1:pos:R:3:move_mask:L:1:momenta:R:3:forces:R:3 idx=2514 E_MACE=-574.3337269903209 d_min=1.8072934452416543 d_reactive=4.861523697082655 rank=1880 dE_rel_meV=788.1627857623243 converged=T energy=-574.3337269903209 stress="0.002049198519882389 -1.5808724524019104e-07 2.0123829702081634e-05 -1.5808724524019104e-07 -0.0006101301741415063 -9.295844955456558e-05 2.0123829702081634e-05 -9.295844955456558e-05 -0.003926943199230995" pbc="T T T"
O        6.10392208       1.30713624       9.18071406  T       0.00000000       0.00000000       0.00000000      -0.00937152       0.03737800       0.00961978
O        9.16077813       4.05438459       3.02679635  F       0.00000000       0.00000000       0.00000000       0.00056311       0.47786991       0.29391298
O        6.10753437       6.71731433       9.12386790  T       0.00000000       0.00000000       0.00000000      -0.01684861      -0.04548518       0.01031650
O        6.11200954       9.41988363       9.20290414  T       0.00000000       0.00000000       0.00000000      -0.02263647       0.02216466       0.00675734
O        9.16487080       4.03594153       9.19033638  T       0.00000000       0.00000000       0.00000000      -0.00937646      -0.00936751      -0.01136031
O        3.06207049       1.32362455       9.19926951  T       0.00000000       0.00000000       0.00000000      -0.00568879      -0.00393867      -0.00731367
O        0.00000000       6.75730765       3.02679635  F       0.00000000       0.00000000       0.00000000       0.00001380      -0.47708742       0.29018385
O        3.05016083       4.04746311       9.21228545  T       0.00000000       0.00000000       0.00000000      -0.00376987      -0.00263512       0.01172984
O        0.00005668       9.45349608       6.10906645  T       0.00000000       0.00000000       0.00000000       0.00018100       0.00294239      -0.01590222
O        0.00000210       6.76116167       6.10263319  F       0.00000000       0.00000000       0.00000000       0.00417278       0.04749950       0.03674574
O       12.21272573       9.45778111       9.21208298  T       0.00000000       0.00000000       0.00000000      -0.00059692       0.00461719      -0.01935004
O       12.23018374       1.34048196       9.18549598  T       0.00000000       0.00000000       0.00000000      -0.00472655       0.01221818       0.00402694
O       12.22289336       4.05251836       9.18488710  T       0.00000000       0.00000000       0.00000000       0.01275515       0.00202908       0.01367720
O        0.00219446       1.35725287       6.10448474  T       0.00000000       0.00000000       0.00000000       0.00062830       0.00596936      -0.01434754
O        0.00000111       4.05052849       6.10263306  F       0.00000000       0.00000000       0.00000000       0.02548229      -0.02994019       0.03285098
O        3.05359271       4.05438459       3.02679635  F       0.00000000       0.00000000       0.00000000      -0.00087692       0.47620997       0.29133600
O        0.00000000       9.46023072       3.02679635  F       0.00000000       0.00000000       0.00000000       0.00014104       0.47849648       0.29319601
O        3.05335324       4.04435043       6.11313987  T       0.00000000       0.00000000       0.00000000      -0.00238745       0.00925919      -0.00556449
O        3.05359271       1.35146153       3.02679635  F       0.00000000       0.00000000       0.00000000       0.00014638      -0.47406733       0.28774707
O        3.05409075       1.35747688       6.10739386  T       0.00000000       0.00000000       0.00000000       0.00211351       0.01092497      -0.00842304
O        0.00000000       4.05438459       3.02679635  F       0.00000000       0.00000000       0.00000000      -0.00171597       0.47828488       0.29177629
O        0.00000000       1.35146153       3.02679635  F       0.00000000       0.00000000       0.00000000      -0.00012636      -0.47894438       0.29206776
O        9.16077813       1.35146153       3.02679635  F       0.00000000       0.00000000       0.00000000      -0.00001106      -0.47671979       0.29482717
O        9.16077827       4.05052947       6.10263005  F       0.00000000       0.00000000       0.00000000      -0.00652943      -0.00788160       0.03403374
O       -0.00240357       6.73698398       9.18131949  T       0.00000000       0.00000000       0.00000000       0.00798457      -0.01384322       0.00090915
O        9.15530145       1.33725830       9.18377782  T       0.00000000       0.00000000       0.00000000      -0.02014245       0.02466594       0.01809649
O        9.16077740       1.35531546       6.10263307  F       0.00000000       0.00000000       0.00000000      -0.01539770       0.02927871      -0.00065270
O        6.10672244       4.04047198       9.19113441  T       0.00000000       0.00000000       0.00000000      -0.00132696       0.00075166       0.02569940
O        6.10580448       1.35578254       6.10042818  T       0.00000000       0.00000000       0.00000000       0.00500943      -0.00578630       0.01645476
O        6.10535177       4.04600018       6.10889273  T       0.00000000       0.00000000       0.00000000       0.00816643       0.00376753       0.00785525
O        6.10718542       1.35146153       3.02679635  F       0.00000000       0.00000000       0.00000000       0.00145610      -0.47621120       0.28845422
O        6.10718542       4.05438459       3.02679635  F       0.00000000       0.00000000       0.00000000       0.00119875       0.47821918       0.29648597
O        3.04755629       9.44996728       9.20624176  T       0.00000000       0.00000000       0.00000000       0.00152152       0.00379234       0.00231539
O        3.05485349       6.76380738       6.10380450  T       0.00000000       0.00000000       0.00000000      -0.01902171      -0.01247125       0.00215207
O        3.05318691       9.45344951       6.10740318  T       0.00000000       0.00000000       0.00000000      -0.00815645      -0.01464872       0.01059883
O        3.05359271       6.75730765       3.02679635  F       0.00000000       0.00000000       0.00000000       0.00064115      -0.47727637       0.29010717
O        3.06480595       6.73663616       9.18820628  T       0.00000000       0.00000000       0.00000000       0.00662185      -0.00689421       0.01081041
O        6.10718542       9.46023072       3.02679635  F       0.00000000       0.00000000       0.00000000       0.00095060       0.48234890       0.29573422
O        6.10718542       6.75730765       3.02679635  F       0.00000000       0.00000000       0.00000000       0.00067562      -0.48029632       0.28940178
O        6.10644845       9.45388954       6.10601211  T       0.00000000       0.00000000       0.00000000       0.00554449      -0.00480637       0.02304888
O        6.10609576       6.75772701       6.09418533  T       0.00000000       0.00000000       0.00000000       0.00617058       0.00542802       0.00856083
O        9.15329772       6.72528185       9.17739951  T       0.00000000       0.00000000       0.00000000       0.00834699       0.02255176       0.00621365
O        9.17085575       9.45583435       9.21019027  T       0.00000000       0.00000000       0.00000000      -0.00478892      -0.01165860      -0.01065817
O        9.16152633       6.76360756       6.10481045  T       0.00000000       0.00000000       0.00000000      -0.00247102      -0.00102477       0.00738310
O        9.16222373       9.45217388       6.10830793  T       0.00000000       0.00000000       0.00000000      -0.00297018      -0.00182963       0.01384394
O        9.16077813       6.75730765       3.02679635  F       0.00000000       0.00000000       0.00000000      -0.00145180      -0.47708882       0.29140613
O        3.05359271       9.46023072       3.02679635  F       0.00000000       0.00000000       0.00000000      -0.00044220       0.47699646       0.29171008
O        9.16077813       9.46023072       3.02679635  F       0.00000000       0.00000000       0.00000000      -0.00098094       0.47726198       0.29146753
Pd       3.05359414       2.70292461       4.56516084  F       0.00000000       0.00000000       0.00000000       0.00166797       0.00060891       0.24295988
Pd       6.10718542       2.70292306       1.50000000  F       0.00000000       0.00000000       0.00000000      -0.00031957       0.00057656      -0.90246174
Pd       3.05359287       8.10876720       4.56515841  F       0.00000000       0.00000000       0.00000000      -0.00215647       0.01679780       0.18458375
Pd       3.12742567       2.67126980      10.83625865  T       0.00000000       0.00000000       0.00000000      -0.00105275       0.00821350      -0.01503525
Pd       3.05431548       2.69483804       7.67390393  T       0.00000000       0.00000000       0.00000000       0.00193151       0.00562673      -0.02793985
Pd       3.05359271       2.70292306       1.50000000  F       0.00000000       0.00000000       0.00000000       0.00020948       0.00030370      -0.90476427
Pd       4.58038906       5.40584612       3.02679635  F       0.00000000       0.00000000       0.00000000      -0.00097534      -0.00277068       0.05343475
Pd       4.58038878       0.00000011       6.09434618  F       0.00000000       0.00000000       0.00000000      -0.01417587      -0.04391933       0.06685014
Pd       4.58038808       5.40584530       6.09434913  F       0.00000000       0.00000000       0.00000000      -0.03268296      -0.07250908       0.07282523
Pd       7.63398177       0.00000000       3.02679635  F       0.00000000       0.00000000       0.00000000       0.00015170      -0.00056027       0.05198255
Pd       3.05359271       8.10876919       1.50000000  F       0.00000000       0.00000000       0.00000000      -0.00002072       0.00019360      -0.90250534
Pd       6.10464090       8.08413215       7.65616176  T       0.00000000       0.00000000       0.00000000       0.02073800       0.03022885      -0.02968897
Pd       7.63398372      10.81169054       6.09434173  F       0.00000000       0.00000000       0.00000000      -0.00265708      -0.05348526       0.06638912
Pd       6.10718498       8.10876457       4.56515665  F       0.00000000       0.00000000       0.00000000      -0.00240765       0.03208040       0.14847196
Pd       1.52679863       5.40584339       6.09434623  F       0.00000000       0.00000000       0.00000000       0.03560560      -0.01766668       0.06733275
Pd       7.63398177       5.40584612       3.02679635  F       0.00000000       0.00000000       0.00000000      -0.00008934      -0.00110960       0.05295903
Pd       6.10718542       8.10876919       1.50000000  F       0.00000000       0.00000000       0.00000000       0.00008756       0.00101068      -0.89942674
Pd       0.00314458       8.10777507       7.66573647  T       0.00000000       0.00000000       0.00000000      -0.00969422      -0.01658887      -0.01836076
Pd       6.13137398       2.64004922      10.82005634  T       0.00000000       0.00000000       0.00000000      -0.00415509       0.01074729      -0.01676484
Pd       1.53056573       5.39907509       9.15326143  T       0.00000000       0.00000000       0.00000000      -0.02442683      -0.01911437      -0.00544813
Pd       7.63511736      -0.02401791       9.15038292  T       0.00000000       0.00000000       0.00000000       0.00430783       0.00780048       0.01343076
Pd       6.10042886       2.68987017       7.66291037  T       0.00000000       0.00000000       0.00000000       0.00910379      -0.00525422      -0.02508106
Pd      12.12721549       8.06772928      10.82067552  T       0.00000000       0.00000000       0.00000000      -0.00583631       0.01851657      -0.00891763
Pd       6.10718636       2.70292272       4.56515365  F       0.00000000       0.00000000       0.00000000      -0.00713301       0.00971354       0.16765396
Pd       3.04793417       8.10178961       7.66414090  T       0.00000000       0.00000000       0.00000000       0.00169379       0.00833909      -0.00165388
Pd       0.00000286       8.10876728       4.56515590  F       0.00000000       0.00000000       0.00000000      -0.00039335       0.00777513       0.19071886
Pd       4.58334688       5.38236712       9.12784903  T       0.00000000       0.00000000       0.00000000       0.01563152       0.04227432      -0.00974638
Pd       9.16077813       2.70292306       1.50000000  F       0.00000000       0.00000000       0.00000000       0.00012731       0.00003094      -0.90136095
Pd       3.21260882       8.08820433      10.83113089  T       0.00000000       0.00000000       0.00000000      -0.01275827       0.01399590       0.01681540
Pd       0.00000000       8.10876919       1.50000000  F       0.00000000       0.00000000       0.00000000      -0.00012680       0.00050071      -0.90321566
Pd       9.07575616       8.07872533      10.83941086  T       0.00000000       0.00000000       0.00000000       0.01484652       0.00673497      -0.02919048
Pd       1.52679635       0.00000000       3.02679635  F       0.00000000       0.00000000       0.00000000       0.00012762      -0.00029178       0.05314515
Pd       1.52679635       5.40584612       3.02679635  F       0.00000000       0.00000000       0.00000000       0.00123025      -0.00054768       0.05493664
Pd      10.68757448       0.00000000       3.02679635  F       0.00000000       0.00000000       0.00000000       0.00007819      -0.00168137       0.05351764
Pd      10.68762504       5.39138199       9.12888099  T       0.00000000       0.00000000       0.00000000       0.01220609       0.01716244       0.01624497
Pd       9.16077751       2.70292195       4.56515514  F       0.00000000       0.00000000       0.00000000      -0.00203432      -0.01016428       0.14634643
Pd      10.68757769      10.81169125       6.09434037  F       0.00000000       0.00000000       0.00000000       0.01670053      -0.01782728       0.08929407
Pd       9.16077986       8.10876364       4.56515811  F       0.00000000       0.00000000       0.00000000       0.00711031       0.01275138       0.20223954
Pd       1.52679695      10.81169175       6.09434358  F       0.00000000       0.00000000       0.00000000       0.01558930      -0.01674968       0.07861989
Pd       9.16635228       8.10165302       7.66720790  T       0.00000000       0.00000000       0.00000000       0.00541719       0.01179050      -0.00068003
Pd       9.15376874       2.70392135       7.65735155  T       0.00000000       0.00000000       0.00000000       0.01371444      -0.01435451       0.01485979
Pd      10.69479169      -0.01143819       9.15420814  T       0.00000000       0.00000000       0.00000000      -0.00518391      -0.00394538      -0.00700073
Pd       0.00000037       2.70292295       4.56515782  F       0.00000000       0.00000000       0.00000000       0.00664806      -0.00061873       0.16382058
Pd       1.52810729      10.79697180       9.15752452  T       0.00000000       0.00000000       0.00000000       0.02617066       0.00098074       0.02640408
Pd       9.26654189       2.55646622      10.83705434  T       0.00000000       0.00000000       0.00000000      -0.00564155      -0.00317597      -0.04070415
Pd       6.11167735       8.24084752      10.94170110  T       0.00000000       0.00000000       0.00000000       0.02755884       0.01162534       0.02055959
Pd      12.23334011       2.70320773       7.65993360  T       0.00000000       0.00000000       0.00000000      -0.02696504      -0.01917214       0.01207148
Pd      10.68757879       5.40584476       6.09434230  F       0.00000000       0.00000000       0.00000000      -0.01340000       0.01012786       0.07076401
Pd       9.16077813       8.10876919       1.50000000  F       0.00000000       0.00000000       0.00000000       0.00009695       0.00025829      -0.90332147
Pd      10.68757448       5.40584612       3.02679635  F       0.00000000       0.00000000       0.00000000      -0.00032430       0.00128171       0.05248503
Pd      12.05088567       2.63107273      10.84701472  T       0.00000000       0.00000000       0.00000000      -0.01351672      -0.00752062       0.01107228
Pd       4.57800081      10.78682371       9.15547657  T       0.00000000       0.00000000       0.00000000       0.01647470      -0.00998979      -0.00315836
Pd       7.63398212       5.40584800       6.09434442  F       0.00000000       0.00000000       0.00000000      -0.00272494      -0.03850071       0.06943851
Pd       7.63087565       5.38178530       9.11681488  T       0.00000000       0.00000000       0.00000000       0.00458898       0.00608993      -0.01840731
Pd       4.58038906       0.00000000       3.02679635  F       0.00000000       0.00000000       0.00000000      -0.00046778       0.00049777       0.05223535
Pd       0.00000000       2.70292306       1.50000000  F       0.00000000       0.00000000       0.00000000      -0.00005149      -0.00017869      -0.90118606
C        6.11719865       7.40722448      12.54524459  T       0.00000000       0.00000000       0.00000000       0.00243864       0.00939093      -0.00346864
O        6.12173999       6.81658467      13.55085092  T       0.00000000       0.00000000       0.00000000       0.00034824      -0.00085606       0.00407657
O        9.44339532       3.86946046      12.31060853  T       0.00000000       0.00000000       0.00000000      -0.01251140       0.02188698       0.02009963
C       10.67986135       3.90114197      12.93491129  T       0.00000000       0.00000000       0.00000000      -0.00626831      -0.00442314      -0.00058866
H       10.83005536       4.88767109      13.42444133  T       0.00000000       0.00000000       0.00000000       0.00831894      -0.02352940       0.00109117
H       10.84969303       3.09255690      13.67850988  T       0.00000000       0.00000000       0.00000000      -0.01573982      -0.01428617      -0.01028324
H       11.59927271       3.86479504      12.19962970  T       0.00000000       0.00000000       0.00000000       0.01629798       0.01385497      -0.00931221
