111
Lattice="12.21437083684855 0.0 7e-16 1.7e-15 10.811692246786171 7e-16 0.0 0.0 29.250333490173453" Properties=species:S:1:pos:R:3:move_mask:L:1:momenta:R:3:forces:R:3 idx=3312 E_MACE=-573.4109000957817 d_min=1.8354561090949115 d_reactive=3.037390694053198 rank=3760 dE_rel_meV=1710.989680301509 converged=T energy=-573.4109000957817 stress="0.0016635422419698136 8.016645758792094e-05 0.0001271995973679676 8.016645758792094e-05 -0.0008150585360278788 -0.0001419466045517369 0.0001271995973679676 -0.0001419466045517369 -0.003835904605444287" pbc="T T T"
O        6.12029653       1.31501183       9.16747870  T       0.00000000       0.00000000       0.00000000       0.00109546       0.00622695       0.00830266
O        9.16077813       4.05438459       3.02679635  F       0.00000000       0.00000000       0.00000000       0.00063251       0.47739221       0.29187752
O        6.11420414       6.73164714       9.18309010  T       0.00000000       0.00000000       0.00000000       0.00177260       0.02780433       0.00264136
O        6.12632292       9.44611014       9.19944019  T       0.00000000       0.00000000       0.00000000      -0.00282678      -0.00429151       0.00940218
O        9.17140834       4.05610244       9.21047510  T       0.00000000       0.00000000       0.00000000       0.00338675      -0.01614380      -0.02955635
O        3.07725533       1.30642898       9.15229576  T       0.00000000       0.00000000       0.00000000      -0.00637307       0.01674425       0.00409286
O        0.00000000       6.75730765       3.02679635  F       0.00000000       0.00000000       0.00000000       0.00073969      -0.47701441       0.28418782
O        3.06591022       4.04638788       9.20837105  T       0.00000000       0.00000000       0.00000000       0.00698330      -0.00181883      -0.01879029
O       -0.00047382       9.44979467       6.10889593  T       0.00000000       0.00000000       0.00000000       0.00418583       0.00886360       0.00075316
O        0.00000210       6.76116167       6.10263319  F       0.00000000       0.00000000       0.00000000      -0.00808722      -0.00661992       0.03246829
O       12.22744715       9.45944586       9.16951537  T       0.00000000       0.00000000       0.00000000       0.00195923      -0.03728447       0.00856264
O       12.23905573       1.35421523       9.17836026  T       0.00000000       0.00000000       0.00000000       0.00684790      -0.00522662      -0.01281651
O       12.21005716       4.03175346       9.24117724  T       0.00000000       0.00000000       0.00000000       0.00219954       0.00539713      -0.00083402
O        0.00004253       1.36078324       6.10787284  T       0.00000000       0.00000000       0.00000000       0.00235747       0.00963862       0.01321293
O        0.00000111       4.05052849       6.10263306  F       0.00000000       0.00000000       0.00000000      -0.02472216       0.00449218       0.06876010
O        3.05359271       4.05438459       3.02679635  F       0.00000000       0.00000000       0.00000000      -0.00111961       0.47671378       0.29643921
O        0.00000000       9.46023072       3.02679635  F       0.00000000       0.00000000       0.00000000       0.00051993       0.47957576       0.29269582
O        3.05455404       4.04820329       6.10922102  T       0.00000000       0.00000000       0.00000000      -0.00378561       0.00291114      -0.00654629
O        3.05359271       1.35146153       3.02679635  F       0.00000000       0.00000000       0.00000000      -0.00030819      -0.47604893       0.29400250
O        3.05513731       1.35682788       6.10205957  T       0.00000000       0.00000000       0.00000000      -0.00583027      -0.00696549      -0.00665788
O        0.00000000       4.05438459       3.02679635  F       0.00000000       0.00000000       0.00000000      -0.00028723       0.47726847       0.28641332
O        0.00000000       1.35146153       3.02679635  F       0.00000000       0.00000000       0.00000000      -0.00013244      -0.48059441       0.29268578
O        9.16077813       1.35146153       3.02679635  F       0.00000000       0.00000000       0.00000000       0.00053375      -0.47754265       0.29346554
O        9.16077827       4.05052947       6.10263005  F       0.00000000       0.00000000       0.00000000       0.00376139      -0.04361367       0.07621056
O        0.00947446       6.74846539       9.22298195  T       0.00000000       0.00000000       0.00000000       0.00610120       0.00374634       0.00884034
O        9.17047146       1.32291680       9.18531074  T       0.00000000       0.00000000       0.00000000       0.00468445       0.03535240      -0.00857282
O        9.16077740       1.35531546       6.10263307  F       0.00000000       0.00000000       0.00000000      -0.00057441       0.04245258       0.03525020
O        6.11801063       4.05908756       9.18807077  T       0.00000000       0.00000000       0.00000000      -0.00040359      -0.02251945      -0.00439768
O        6.10778440       1.35675890       6.10069291  T       0.00000000       0.00000000       0.00000000      -0.00072530      -0.00809631       0.00637124
O        6.10783188       4.04852604       6.10517662  T       0.00000000       0.00000000       0.00000000      -0.00159610       0.00108928       0.00584982
O        6.10718542       1.35146153       3.02679635  F       0.00000000       0.00000000       0.00000000      -0.00035614      -0.47764498       0.29085117
O        6.10718542       4.05438459       3.02679635  F       0.00000000       0.00000000       0.00000000      -0.00003961       0.47808895       0.29301003
O        3.06581519       9.44461943       9.18243063  T       0.00000000       0.00000000       0.00000000       0.00571128      -0.01887731      -0.00274889
O        3.05293328       6.75952251       6.09886536  T       0.00000000       0.00000000       0.00000000       0.00595636       0.00512958       0.01568738
O        3.05434515       9.45185628       6.10754367  T       0.00000000       0.00000000       0.00000000      -0.00159054       0.00218293      -0.00598833
O        3.05359271       6.75730765       3.02679635  F       0.00000000       0.00000000       0.00000000      -0.00129248      -0.47725028       0.28777406
O        3.05506158       6.72652999       9.18209891  T       0.00000000       0.00000000       0.00000000       0.00251068       0.01922049       0.01789871
O        6.10718542       9.46023072       3.02679635  F       0.00000000       0.00000000       0.00000000      -0.00050016       0.47929872       0.29459135
O        6.10718542       6.75730765       3.02679635  F       0.00000000       0.00000000       0.00000000      -0.00083075      -0.47718605       0.28917247
O        6.10832288       9.45222017       6.10726534  T       0.00000000       0.00000000       0.00000000       0.00125945       0.01053827       0.00247538
O        6.10745957       6.76103150       6.10064721  T       0.00000000       0.00000000       0.00000000       0.00148112       0.00312233       0.01123056
O        9.17252010       6.74120120       9.19578322  T       0.00000000       0.00000000       0.00000000       0.00719783       0.01413483       0.01758630
O        9.18123569       9.45672320       9.20304081  T       0.00000000       0.00000000       0.00000000       0.00041807      -0.02049758       0.00144968
O        9.16181786       6.76327155       6.10491793  T       0.00000000       0.00000000       0.00000000      -0.00392263       0.00189780       0.01185763
O        9.16182999       9.45215245       6.10955951  T       0.00000000       0.00000000       0.00000000       0.00045355       0.00014558      -0.00961908
O        9.16077813       6.75730765       3.02679635  F       0.00000000       0.00000000       0.00000000       0.00009592      -0.47696809       0.28800879
O        3.05359271       9.46023072       3.02679635  F       0.00000000       0.00000000       0.00000000      -0.00014152       0.48024993       0.29779351
O        9.16077813       9.46023072       3.02679635  F       0.00000000       0.00000000       0.00000000       0.00021220       0.47790664       0.29280250
Pd       3.05359414       2.70292461       4.56516084  F       0.00000000       0.00000000       0.00000000      -0.00286369       0.01996021       0.17681905
Pd       6.10718542       2.70292306       1.50000000  F       0.00000000       0.00000000       0.00000000      -0.00020911       0.00027510      -0.90148498
Pd       3.05359287       8.10876720       4.56515841  F       0.00000000       0.00000000       0.00000000      -0.00169393       0.00654540       0.15251021
Pd       3.37796676       2.65253571      10.78515175  T       0.00000000       0.00000000       0.00000000      -0.00756127      -0.00505729       0.01077321
Pd       3.06431963       2.69794227       7.65889551  T       0.00000000       0.00000000       0.00000000      -0.00145528       0.01030126       0.00470526
Pd       3.05359271       2.70292306       1.50000000  F       0.00000000       0.00000000       0.00000000       0.00012072       0.00127816      -0.90362057
Pd       4.58038906       5.40584612       3.02679635  F       0.00000000       0.00000000       0.00000000       0.00020627      -0.00116622       0.04842005
Pd       4.58038878       0.00000011       6.09434618  F       0.00000000       0.00000000       0.00000000       0.01051270      -0.04275256       0.06975380
Pd       4.58038808       5.40584530       6.09434913  F       0.00000000       0.00000000       0.00000000       0.00396382      -0.03389792       0.06486699
Pd       7.63398177       0.00000000       3.02679635  F       0.00000000       0.00000000       0.00000000       0.00004053      -0.00171396       0.05159658
Pd       3.05359271       8.10876919       1.50000000  F       0.00000000       0.00000000       0.00000000      -0.00005221      -0.00044639      -0.90197776
Pd       6.11596182       8.09855911       7.66043379  T       0.00000000       0.00000000       0.00000000      -0.00278303       0.01310843       0.00503469
Pd       7.63398372      10.81169054       6.09434173  F       0.00000000       0.00000000       0.00000000       0.01837314      -0.04008364       0.07607464
Pd       6.10718498       8.10876457       4.56515665  F       0.00000000       0.00000000       0.00000000       0.00411591       0.00578838       0.15365130
Pd       1.52679863       5.40584339       6.09434623  F       0.00000000       0.00000000       0.00000000      -0.00956015      -0.03541092       0.05918365
Pd       7.63398177       5.40584612       3.02679635  F       0.00000000       0.00000000       0.00000000      -0.00029058       0.00056614       0.04913147
Pd       6.10718542       8.10876919       1.50000000  F       0.00000000       0.00000000       0.00000000       0.00018715       0.00030385      -0.90181045
Pd      -0.00216875       8.09524908       7.66952554  T       0.00000000       0.00000000       0.00000000       0.00740541      -0.02682574       0.00233035
Pd       6.14843780       2.66682213      10.85134043  T       0.00000000       0.00000000       0.00000000      -0.04396271       0.01023798      -0.01934822
Pd       1.52594442       5.38691463       9.16811839  T       0.00000000       0.00000000       0.00000000      -0.00193617      -0.00683724      -0.01422054
Pd       7.65013624      -0.02338609       9.15273851  T       0.00000000       0.00000000       0.00000000       0.00548656       0.00189613      -0.01093510
Pd       6.11242934       2.69890969       7.66111588  T       0.00000000       0.00000000       0.00000000       0.00416657      -0.01095684       0.01191246
Pd      12.30039917       8.15925652      10.85707115  T       0.00000000       0.00000000       0.00000000       0.00030077       0.01036272      -0.01098270
Pd       6.10718636       2.70292272       4.56515365  F       0.00000000       0.00000000       0.00000000       0.00195070       0.01336737       0.15323292
Pd       3.06057306       8.09474863       7.65909699  T       0.00000000       0.00000000       0.00000000      -0.00588124      -0.01676444       0.00092214
Pd       0.00000286       8.10876728       4.56515590  F       0.00000000       0.00000000       0.00000000      -0.00325960      -0.00008929       0.19519087
Pd       4.58659274       5.39482786       9.14904453  T       0.00000000       0.00000000       0.00000000       0.00017944      -0.00577970       0.00380893
Pd       9.16077813       2.70292306       1.50000000  F       0.00000000       0.00000000       0.00000000      -0.00009609       0.00040455      -0.90077632
Pd       3.03534785       8.07701429      10.83151034  T       0.00000000       0.00000000       0.00000000       0.00811263       0.00230526      -0.01656891
Pd       0.00000000       8.10876919       1.50000000  F       0.00000000       0.00000000       0.00000000      -0.00013639      -0.00083131      -0.90246934
Pd       9.16229223       8.09677092      10.83862679  T       0.00000000       0.00000000       0.00000000       0.00344864      -0.00218362      -0.02158907
Pd       1.52679635       0.00000000       3.02679635  F       0.00000000       0.00000000       0.00000000      -0.00254778      -0.00047494       0.05021905
Pd       1.52679635       5.40584612       3.02679635  F       0.00000000       0.00000000       0.00000000       0.00019670      -0.00071919       0.05205267
Pd      10.68757448       0.00000000       3.02679635  F       0.00000000       0.00000000       0.00000000       0.00058439      -0.00081214       0.05582338
Pd      10.70084658       5.39842479       9.18053827  T       0.00000000       0.00000000       0.00000000      -0.00195657      -0.01074327      -0.00868298
Pd       9.16077751       2.70292195       4.56515514  F       0.00000000       0.00000000       0.00000000       0.00468814       0.00151968       0.16479281
Pd      10.68757769      10.81169125       6.09434037  F       0.00000000       0.00000000       0.00000000       0.03270658      -0.01543918       0.07340989
Pd       9.16077986       8.10876364       4.56515811  F       0.00000000       0.00000000       0.00000000       0.00384252       0.00664899       0.20267406
Pd       1.52679695      10.81169175       6.09434358  F       0.00000000       0.00000000       0.00000000      -0.01765110      -0.02058288       0.12940135
Pd       9.17157528       8.10341464       7.66765935  T       0.00000000       0.00000000       0.00000000       0.00087500      -0.00758591       0.00614510
Pd       9.16800049       2.70059863       7.66300940  T       0.00000000       0.00000000       0.00000000      -0.00055741       0.01249151       0.01293515
Pd      10.70604511      -0.01084854       9.14349912  T       0.00000000       0.00000000       0.00000000       0.00595633       0.02534606       0.00463078
Pd       0.00000037       2.70292295       4.56515782  F       0.00000000       0.00000000       0.00000000      -0.00040116      -0.00033116       0.21080779
Pd       1.54667081      10.78169702       9.10035783  T       0.00000000       0.00000000       0.00000000       0.00936520       0.02479160       0.00361435
Pd       8.90341188       2.67371255      10.80559442  T       0.00000000       0.00000000       0.00000000       0.02945442      -0.00273255      -0.01281791
Pd       6.10715534       8.07563875      10.83142486  T       0.00000000       0.00000000       0.00000000       0.00418403       0.00375365      -0.01240128
Pd      12.20839836       2.71572117       7.67227238  T       0.00000000       0.00000000       0.00000000       0.00935177       0.01206039      -0.02125275
Pd      10.68757879       5.40584476       6.09434230  F       0.00000000       0.00000000       0.00000000       0.00691183      -0.00363689       0.03719964
Pd       9.16077813       8.10876919       1.50000000  F       0.00000000       0.00000000       0.00000000       0.00005511      -0.00002203      -0.90290946
Pd      10.68757448       5.40584612       3.02679635  F       0.00000000       0.00000000       0.00000000      -0.00049927       0.00070896       0.05428431
Pd      12.39658435       2.49940862      10.92159289  T       0.00000000       0.00000000       0.00000000      -0.01760916       0.01777286       0.02089359
Pd       4.59826145      10.77928006       9.13895009  T       0.00000000       0.00000000       0.00000000       0.00170893       0.00387326      -0.01192724
Pd       7.63398212       5.40584800       6.09434442  F       0.00000000       0.00000000       0.00000000       0.01764986      -0.00285936       0.06215222
Pd       7.64599144       5.40007394       9.15403462  T       0.00000000       0.00000000       0.00000000       0.00326967       0.00307886       0.00507018
Pd       4.58038906       0.00000000       3.02679635  F       0.00000000       0.00000000       0.00000000       0.00105742      -0.00101665       0.05265164
Pd       0.00000000       2.70292306       1.50000000  F       0.00000000       0.00000000       0.00000000       0.00029671       0.00064831      -0.90136126
C       12.58803098       3.60825359      12.37166535  T       0.00000000       0.00000000       0.00000000      -0.01402033       0.02137499      -0.02326872
O       12.85056331       4.27661029      13.28734173  T       0.00000000       0.00000000       0.00000000      -0.02176177       0.01914609      -0.00373581
O       12.97621227      11.48696500      11.68414741  T       0.00000000       0.00000000       0.00000000      -0.00407536      -0.00858644       0.03278095
C       12.63091728      10.92651903      12.92429587  T       0.00000000       0.00000000       0.00000000       0.00001226      -0.02045916       0.00974113
H       13.29633065      11.25231603      13.75514160  T       0.00000000       0.00000000       0.00000000      -0.02846815       0.01472032      -0.01425165
H       11.57461365      11.09678201      13.22846942  T       0.00000000       0.00000000       0.00000000       0.02697220       0.02188704      -0.03419759
H       12.76498924       9.81503661      12.82615095  T       0.00000000       0.00000000       0.00000000      -0.04403215       0.00489496       0.00324469
