111
Lattice="12.21437083684855 0.0 7e-16 1.7e-15 10.811692246786171 7e-16 0.0 0.0 29.250333490173453" Properties=species:S:1:pos:R:3:move_mask:L:1:momenta:R:3:forces:R:3 idx=2461 E_MACE=-574.75014496893 d_min=1.910425188485284 d_reactive=5.311198314301163 rank=7 dE_rel_meV=371.7448071531635 converged=T energy=-574.75014496893 stress="0.0009629220423454854 -7.163652582020857e-05 8.300911998605197e-05 -7.163652582020857e-05 -0.0011228734247804607 1.8285114147115248e-05 8.300911998605197e-05 1.8285114147115248e-05 -0.004036762994458094" pbc="T T T"
O        6.12072935       1.32863108       9.14703184  T       0.00000000       0.00000000       0.00000000       0.00667742       0.00286534       0.01746015
O        9.16077813       4.05438459       3.02679635  F       0.00000000       0.00000000       0.00000000      -0.00054826       0.47675469       0.29479098
O        6.10056591       6.76197523       9.16103568  T       0.00000000       0.00000000       0.00000000      -0.01060485      -0.02088834       0.00383849
O        6.12408548       9.46453420       9.15966996  T       0.00000000       0.00000000       0.00000000      -0.01091199       0.00388052       0.00545846
O        9.16508682       4.07487728       9.18866434  T       0.00000000       0.00000000       0.00000000       0.01571096      -0.00900657       0.00593273
O        3.07289048       1.33679411       9.16930401  T       0.00000000       0.00000000       0.00000000      -0.00720948      -0.00801676       0.00118320
O        0.00000000       6.75730765       3.02679635  F       0.00000000       0.00000000       0.00000000       0.00038615      -0.47596380       0.28936080
O        3.02398319       4.06329282       9.17632506  T       0.00000000       0.00000000       0.00000000       0.00908840       0.01103769      -0.02077080
O       -0.00009796       9.45339539       6.10565839  T       0.00000000       0.00000000       0.00000000       0.00944528      -0.00375433      -0.00595241
O        0.00000210       6.76116167       6.10263319  F       0.00000000       0.00000000       0.00000000       0.00142097       0.05151224       0.05068727
O       12.21841828       9.48271891       9.18174427  T       0.00000000       0.00000000       0.00000000      -0.01195150       0.01155788      -0.00427739
O       12.25232742       1.36236606       9.19826607  T       0.00000000       0.00000000       0.00000000      -0.00231391      -0.03273986       0.01588359
O       12.23157262       4.06441735       9.19877814  T       0.00000000       0.00000000       0.00000000       0.00130123       0.00382976       0.01691481
O        0.00037282       1.35830352       6.10489637  T       0.00000000       0.00000000       0.00000000       0.00436787       0.00101592       0.01275670
O        0.00000111       4.05052849       6.10263306  F       0.00000000       0.00000000       0.00000000      -0.00147988      -0.01561358       0.00883155
O        3.05359271       4.05438459       3.02679635  F       0.00000000       0.00000000       0.00000000      -0.00041911       0.47737647       0.29279387
O        0.00000000       9.46023072       3.02679635  F       0.00000000       0.00000000       0.00000000       0.00013250       0.47821695       0.29219193
O        3.05035413       4.04664284       6.10644034  T       0.00000000       0.00000000       0.00000000      -0.00463145      -0.01496280       0.00639905
O        3.05359271       1.35146153       3.02679635  F       0.00000000       0.00000000       0.00000000       0.00295000      -0.47666354       0.29270288
O        3.05437560       1.35595645       6.10445066  T       0.00000000       0.00000000       0.00000000      -0.01004010      -0.01328681      -0.01260214
O        0.00000000       4.05438459       3.02679635  F       0.00000000       0.00000000       0.00000000       0.00086220       0.47605257       0.29246751
O        0.00000000       1.35146153       3.02679635  F       0.00000000       0.00000000       0.00000000       0.00076426      -0.47706507       0.29402310
O        9.16077813       1.35146153       3.02679635  F       0.00000000       0.00000000       0.00000000      -0.00023929      -0.47668303       0.29512131
O        9.16077827       4.05052947       6.10263005  F       0.00000000       0.00000000       0.00000000       0.01657891      -0.00389139       0.00840410
O       -0.00453214       6.76584528       9.20667034  T       0.00000000       0.00000000       0.00000000       0.01378977      -0.01556835       0.00657477
O        9.16104525       1.35529959       9.18546759  T       0.00000000       0.00000000       0.00000000      -0.01190314      -0.00400203       0.00853454
O        9.16077740       1.35531546       6.10263307  F       0.00000000       0.00000000       0.00000000       0.01881361       0.03740001       0.03635897
O        6.17330144       4.07873270       9.14908203  T       0.00000000       0.00000000       0.00000000      -0.01698623       0.00628241      -0.00541583
O        6.10611114       1.35463217       6.09974809  T       0.00000000       0.00000000       0.00000000       0.01973577      -0.02427880       0.00749775
O        6.11175844       4.04759345       6.10088971  T       0.00000000       0.00000000       0.00000000       0.00246698       0.00808327       0.02222625
O        6.10718542       1.35146153       3.02679635  F       0.00000000       0.00000000       0.00000000      -0.00357206      -0.47879207       0.29537562
O        6.10718542       4.05438459       3.02679635  F       0.00000000       0.00000000       0.00000000       0.00062575       0.47987958       0.29462784
O        3.06302949       9.46743509       9.18314405  T       0.00000000       0.00000000       0.00000000      -0.00594823       0.00060350       0.00615604
O        3.05408460       6.76277556       6.10579638  T       0.00000000       0.00000000       0.00000000      -0.00643012       0.00222489      -0.01033053
O        3.05530096       9.45464093       6.10533506  T       0.00000000       0.00000000       0.00000000      -0.02164875      -0.00659430       0.00648924
O        3.05359271       6.75730765       3.02679635  F       0.00000000       0.00000000       0.00000000      -0.00164418      -0.47685244       0.29477906
O        3.06258126       6.74805183       9.19233934  T       0.00000000       0.00000000       0.00000000      -0.01160382      -0.00586655       0.00574746
O        6.10718542       9.46023072       3.02679635  F       0.00000000       0.00000000       0.00000000       0.00300921       0.47889027       0.29488357
O        6.10718542       6.75730765       3.02679635  F       0.00000000       0.00000000       0.00000000       0.00114629      -0.48163778       0.29562200
O        6.10678021       9.45833017       6.09944583  T       0.00000000       0.00000000       0.00000000       0.01318634       0.00726808       0.01719204
O        6.10478773       6.76319347       6.10168793  T       0.00000000       0.00000000       0.00000000       0.01328277      -0.01060949       0.00184942
O        9.21201959       6.76894938       9.18013503  T       0.00000000       0.00000000       0.00000000      -0.00709466      -0.01818870       0.00985194
O        9.20113575       9.48626232       9.15893337  T       0.00000000       0.00000000       0.00000000      -0.00788901       0.00332092      -0.01811992
O        9.16409127       6.76588969       6.10566004  T       0.00000000       0.00000000       0.00000000      -0.00845595      -0.00775768       0.00642957
O        9.16450733       9.45495668       6.10321572  T       0.00000000       0.00000000       0.00000000      -0.01762072      -0.00171609      -0.00362859
O        9.16077813       6.75730765       3.02679635  F       0.00000000       0.00000000       0.00000000      -0.00221617      -0.47888356       0.29130349
O        3.05359271       9.46023072       3.02679635  F       0.00000000       0.00000000       0.00000000      -0.00105501       0.47562392       0.29570620
O        9.16077813       9.46023072       3.02679635  F       0.00000000       0.00000000       0.00000000      -0.00198748       0.47789174       0.29018934
Pd       3.05359414       2.70292461       4.56516084  F       0.00000000       0.00000000       0.00000000      -0.00665238       0.01314179       0.20450623
Pd       6.10718542       2.70292306       1.50000000  F       0.00000000       0.00000000       0.00000000      -0.00019134      -0.00027955      -0.90184370
Pd       3.05359287       8.10876720       4.56515841  F       0.00000000       0.00000000       0.00000000       0.00478790      -0.00650290       0.18324370
Pd       3.32753931       3.01885475      10.91980988  T       0.00000000       0.00000000       0.00000000      -0.00283763      -0.00890135       0.01222212
Pd       3.03543086       2.68673263       7.66823037  T       0.00000000       0.00000000       0.00000000       0.00769552      -0.00098742       0.01359394
Pd       3.05359271       2.70292306       1.50000000  F       0.00000000       0.00000000       0.00000000       0.00004285      -0.00009391      -0.90323896
Pd       4.58038906       5.40584612       3.02679635  F       0.00000000       0.00000000       0.00000000      -0.00064103       0.00089925       0.05440304
Pd       4.58038878       0.00000011       6.09434618  F       0.00000000       0.00000000       0.00000000      -0.00808744      -0.02275549       0.05588002
Pd       4.58038808       5.40584530       6.09434913  F       0.00000000       0.00000000       0.00000000       0.00089585      -0.04194410       0.07222164
Pd       7.63398177       0.00000000       3.02679635  F       0.00000000       0.00000000       0.00000000       0.00054863       0.00128736       0.05015667
Pd       3.05359271       8.10876919       1.50000000  F       0.00000000       0.00000000       0.00000000      -0.00035541       0.00048649      -0.90418781
Pd       6.09798798       8.11720148       7.65724154  T       0.00000000       0.00000000       0.00000000       0.01169725      -0.00835325      -0.00438283
Pd       7.63398372      10.81169054       6.09434173  F       0.00000000       0.00000000       0.00000000       0.01157359      -0.02525860       0.05349474
Pd       6.10718498       8.10876457       4.56515665  F       0.00000000       0.00000000       0.00000000      -0.01060809      -0.00398200       0.15192824
Pd       1.52679863       5.40584339       6.09434623  F       0.00000000       0.00000000       0.00000000       0.00830413      -0.00281783       0.05323845
Pd       7.63398177       5.40584612       3.02679635  F       0.00000000       0.00000000       0.00000000      -0.00045670      -0.00049042       0.05348397
Pd       6.10718542       8.10876919       1.50000000  F       0.00000000       0.00000000       0.00000000       0.00035539       0.00047187      -0.90130365
Pd       0.00011637       8.11176177       7.67043675  T       0.00000000       0.00000000       0.00000000      -0.00688052       0.01072603      -0.02256695
Pd       5.90430772       3.05091732      10.90294082  T       0.00000000       0.00000000       0.00000000       0.01715735       0.01780146       0.00453774
Pd       1.52120613       5.42443952       9.14885024  T       0.00000000       0.00000000       0.00000000       0.00855198       0.00450595      -0.00721388
Pd       7.64616032       0.00097286       9.07783343  T       0.00000000       0.00000000       0.00000000      -0.00560874       0.00663150       0.00361437
Pd       6.14091959       2.68720960       7.65773525  T       0.00000000       0.00000000       0.00000000      -0.01648023       0.00758860       0.01119473
Pd      12.13823004       8.14862909      10.86928684  T       0.00000000       0.00000000       0.00000000      -0.02034948       0.00469844      -0.01687545
Pd       6.10718636       2.70292272       4.56515365  F       0.00000000       0.00000000       0.00000000       0.00692844       0.00900450       0.13423273
Pd       3.06122023       8.10636291       7.65990674  T       0.00000000       0.00000000       0.00000000       0.00579021       0.01532965      -0.01192264
Pd       0.00000286       8.10876728       4.56515590  F       0.00000000       0.00000000       0.00000000       0.00471433      -0.00903161       0.19690021
Pd       4.59008004       5.41249990       9.10916052  T       0.00000000       0.00000000       0.00000000      -0.00781719       0.01969895       0.00824274
Pd       9.16077813       2.70292306       1.50000000  F       0.00000000       0.00000000       0.00000000      -0.00023135      -0.00003174      -0.90247836
Pd       2.74642134       8.11524367      10.78984819  T       0.00000000       0.00000000       0.00000000      -0.00991546      -0.01401018       0.00595611
Pd       0.00000000       8.10876919       1.50000000  F       0.00000000       0.00000000       0.00000000       0.00031830      -0.00018882      -0.90243222
Pd       9.32307958       8.17984326      10.98571222  T       0.00000000       0.00000000       0.00000000       0.01704428       0.00901440      -0.00274980
Pd       1.52679635       0.00000000       3.02679635  F       0.00000000       0.00000000       0.00000000      -0.00089969       0.00034432       0.05336973
Pd       1.52679635       5.40584612       3.02679635  F       0.00000000       0.00000000       0.00000000       0.00071055      -0.00068269       0.05409887
Pd      10.68757448       0.00000000       3.02679635  F       0.00000000       0.00000000       0.00000000      -0.00003956      -0.00081959       0.05437987
Pd      10.70202937       5.40196329       9.14645966  T       0.00000000       0.00000000       0.00000000       0.00627719      -0.01507129      -0.00004694
Pd       9.16077751       2.70292195       4.56515514  F       0.00000000       0.00000000       0.00000000       0.00539174       0.00092525       0.15918538
Pd      10.68757769      10.81169125       6.09434037  F       0.00000000       0.00000000       0.00000000       0.01849161       0.01027158       0.06450335
Pd       9.16077986       8.10876364       4.56515811  F       0.00000000       0.00000000       0.00000000       0.00932352      -0.00264393       0.21208450
Pd       1.52679695      10.81169175       6.09434358  F       0.00000000       0.00000000       0.00000000       0.01062682      -0.01408610       0.07265032
Pd       9.19218866       8.11617111       7.67265704  T       0.00000000       0.00000000       0.00000000       0.00686245       0.00012499       0.00051889
Pd       9.17291808       2.70854836       7.65852548  T       0.00000000       0.00000000       0.00000000      -0.00943099      -0.00169953      -0.03370527
Pd      10.70485616       0.03381028       9.13301564  T       0.00000000       0.00000000       0.00000000       0.01773425      -0.00049082       0.01069893
Pd       0.00000037       2.70292295       4.56515782  F       0.00000000       0.00000000       0.00000000      -0.00550860       0.00588723       0.16877609
Pd       1.54927293      10.81530120       9.11805124  T       0.00000000       0.00000000       0.00000000      -0.01490004       0.03709375       0.01974476
Pd       8.72290821       2.72628331      10.75922690  T       0.00000000       0.00000000       0.00000000      -0.00127672       0.00859254       0.01624532
Pd       6.65031816       8.02271514      10.84232147  T       0.00000000       0.00000000       0.00000000      -0.00620145       0.00353794      -0.00871596
Pd      12.22155460       2.70883369       7.66111869  T       0.00000000       0.00000000       0.00000000      -0.00187193      -0.00425258      -0.00796266
Pd      10.68757879       5.40584476       6.09434230  F       0.00000000       0.00000000       0.00000000      -0.01200564       0.02564413       0.05037332
Pd       9.16077813       8.10876919       1.50000000  F       0.00000000       0.00000000       0.00000000      -0.00008581      -0.00029817      -0.90243380
Pd      10.68757448       5.40584612       3.02679635  F       0.00000000       0.00000000       0.00000000      -0.00081624       0.00101482       0.05428390
Pd      12.72332678       2.72777503      10.76467850  T       0.00000000       0.00000000       0.00000000      -0.01462441       0.00004035       0.01635074
Pd       4.59745936      10.80462920       9.09595419  T       0.00000000       0.00000000       0.00000000       0.02468963      -0.00310723      -0.00289686
Pd       7.63398212       5.40584800       6.09434442  F       0.00000000       0.00000000       0.00000000       0.01489878       0.05907742       0.05128420
Pd       7.66904436       5.44254255       9.10595533  T       0.00000000       0.00000000       0.00000000      -0.01663760       0.00609108       0.01130322
Pd       4.58038906       0.00000000       3.02679635  F       0.00000000       0.00000000       0.00000000      -0.00090255      -0.00190956       0.05007204
Pd       0.00000000       2.70292306       1.50000000  F       0.00000000       0.00000000       0.00000000       0.00036236      -0.00017070      -0.90233364
C        7.80577081      -2.00202501      12.14438137  T       0.00000000       0.00000000       0.00000000       0.01668115       0.01411259       0.01013444
O        7.84202780      -1.38111659      13.15957914  T       0.00000000       0.00000000       0.00000000       0.00721302       0.00320811      -0.01433762
O        4.64967182       2.26335937      12.37753956  T       0.00000000       0.00000000       0.00000000      -0.00620172      -0.01810543       0.01835448
C        4.70305748       0.85390405      12.65664843  T       0.00000000       0.00000000       0.00000000      -0.00997489      -0.01556857       0.00003627
H        3.84113343       0.58828347      13.29638654  T       0.00000000       0.00000000       0.00000000      -0.00605240       0.00063296       0.00251534
H        4.66379054       0.25365449      11.72304240  T       0.00000000       0.00000000       0.00000000       0.00739587       0.00027033      -0.01484959
H        5.64148838       0.62788133      13.19401573  T       0.00000000       0.00000000       0.00000000      -0.01785899      -0.00590521      -0.00903675
