111
Lattice="12.21437083684855 0.0 7e-16 1.7e-15 10.811692246786171 7e-16 0.0 0.0 29.250333490173453" Properties=species:S:1:pos:R:3:move_mask:L:1:momenta:R:3:forces:R:3 idx=2156 E_MACE=-574.7500544034318 d_min=1.9141402665507445 d_reactive=5.284082810430655 rank=9 dE_rel_meV=371.83537265138966 converged=T energy=-574.7500544034318 stress="0.000968680962012961 1.464598537289274e-05 2.6649894336625358e-05 1.464598537289274e-05 -0.0011514394950367561 -0.000161426177621975 2.6649894336625358e-05 -0.000161426177621975 -0.004072426803861157" pbc="T T T"
O        6.12432291       1.32161498       9.18494058  T       0.00000000       0.00000000       0.00000000      -0.02385409      -0.02460705       0.00765607
O        9.16077813       4.05438459       3.02679635  F       0.00000000       0.00000000       0.00000000       0.00059148       0.47857994       0.29549556
O        6.08569414       6.71006492       9.13826834  T       0.00000000       0.00000000       0.00000000       0.00221865       0.00535720       0.01373025
O        6.06995785       9.43748663       9.17463624  T       0.00000000       0.00000000       0.00000000       0.01968048       0.02111443       0.02546385
O        9.16925921       4.05639939       9.16033462  T       0.00000000       0.00000000       0.00000000      -0.00969359       0.01048764       0.00132768
O        3.05483730       1.32448722       9.19599750  T       0.00000000       0.00000000       0.00000000      -0.01371749       0.01344406       0.00190320
O        0.00000000       6.75730765       3.02679635  F       0.00000000       0.00000000       0.00000000       0.00038367      -0.47576056       0.29471199
O        3.03587746       4.02686675       9.21621740  T       0.00000000       0.00000000       0.00000000      -0.01710963      -0.00431586       0.02334571
O        0.00076693       9.45310569       6.10606237  T       0.00000000       0.00000000       0.00000000       0.00484516      -0.00294289       0.00942069
O        0.00000210       6.76116167       6.10263319  F       0.00000000       0.00000000       0.00000000       0.01615721      -0.00048817      -0.00014566
O       12.22852400       9.45051467       9.19337308  T       0.00000000       0.00000000       0.00000000      -0.02255302      -0.00538361      -0.00014632
O       12.26555233       1.31761197       9.15450719  T       0.00000000       0.00000000       0.00000000      -0.00649302       0.02920666       0.00848555
O       12.21604101       4.05290180       9.18285911  T       0.00000000       0.00000000       0.00000000      -0.01265474      -0.01860436      -0.01264224
O        0.00501331       1.36044647       6.10453026  T       0.00000000       0.00000000       0.00000000      -0.00096810      -0.00668799       0.00372510
O        0.00000111       4.05052849       6.10263306  F       0.00000000       0.00000000       0.00000000       0.01203214       0.01201597       0.03270770
O        3.05359271       4.05438459       3.02679635  F       0.00000000       0.00000000       0.00000000      -0.00045544       0.47662416       0.29350505
O        0.00000000       9.46023072       3.02679635  F       0.00000000       0.00000000       0.00000000       0.00071725       0.47819560       0.29604761
O        3.05407098       4.04554512       6.10998113  T       0.00000000       0.00000000       0.00000000      -0.00680800       0.00423934       0.00667986
O        3.05359271       1.35146153       3.02679635  F       0.00000000       0.00000000       0.00000000      -0.00129466      -0.47435943       0.28955333
O        3.05341902       1.35621815       6.10387874  T       0.00000000       0.00000000       0.00000000       0.01058319      -0.00088044      -0.00556566
O        0.00000000       4.05438459       3.02679635  F       0.00000000       0.00000000       0.00000000      -0.00363377       0.47675767       0.29132919
O        0.00000000       1.35146153       3.02679635  F       0.00000000       0.00000000       0.00000000       0.00009202      -0.47860458       0.29318045
O        9.16077813       1.35146153       3.02679635  F       0.00000000       0.00000000       0.00000000       0.00035432      -0.47827293       0.29497309
O        9.16077827       4.05052947       6.10263005  F       0.00000000       0.00000000       0.00000000       0.00780647       0.00600927       0.01954969
O        0.01211069       6.73411631       9.18095402  T       0.00000000       0.00000000       0.00000000      -0.01370727       0.01914933       0.00500897
O        9.11929348       1.30578088       9.14138334  T       0.00000000       0.00000000       0.00000000      -0.00768364       0.00989208       0.00858770
O        9.16077740       1.35531546       6.10263307  F       0.00000000       0.00000000       0.00000000      -0.03866811       0.03117810      -0.02034989
O        6.12940602       4.02891557       9.20232050  T       0.00000000       0.00000000       0.00000000       0.00389672       0.01572761      -0.01427485
O        6.10736914       1.35555607       6.10165710  T       0.00000000       0.00000000       0.00000000      -0.00684638      -0.00607311      -0.00484980
O        6.10580762       4.04754831       6.10825250  T       0.00000000       0.00000000       0.00000000       0.00973707      -0.01053252       0.00204527
O        6.10718542       1.35146153       3.02679635  F       0.00000000       0.00000000       0.00000000       0.00171893      -0.47574703       0.29172813
O        6.10718542       4.05438459       3.02679635  F       0.00000000       0.00000000       0.00000000       0.00025568       0.47738738       0.29639996
O        3.07976436       9.43604446       9.21693682  T       0.00000000       0.00000000       0.00000000      -0.00228265       0.00185524      -0.00219927
O        3.05422272       6.76275320       6.10483161  T       0.00000000       0.00000000       0.00000000       0.00148925       0.00032393      -0.00933921
O        3.05433263       9.44981530       6.11164700  T       0.00000000       0.00000000       0.00000000       0.00914975       0.00093125       0.00457519
O        3.05359271       6.75730765       3.02679635  F       0.00000000       0.00000000       0.00000000      -0.00033367      -0.47478624       0.28672588
O        3.06984912       6.71567680       9.18302431  T       0.00000000       0.00000000       0.00000000       0.01264734      -0.00257636      -0.00798904
O        6.10718542       9.46023072       3.02679635  F       0.00000000       0.00000000       0.00000000       0.00117532       0.48032372       0.29452119
O        6.10718542       6.75730765       3.02679635  F       0.00000000       0.00000000       0.00000000       0.00077940      -0.47791756       0.28923931
O        6.10609122       9.45238256       6.10615938  T       0.00000000       0.00000000       0.00000000      -0.01535631      -0.00526481      -0.00565099
O        6.10568091       6.75940091       6.09790866  T       0.00000000       0.00000000       0.00000000       0.00378505       0.00530044      -0.00683425
O        9.16302020       6.73554511       9.14159347  T       0.00000000       0.00000000       0.00000000      -0.00545312      -0.00756191       0.00727914
O        9.17945342       9.43868655       9.16648911  T       0.00000000       0.00000000       0.00000000       0.01246425       0.02666824       0.02474171
O        9.16224557       6.75835646       6.09770298  T       0.00000000       0.00000000       0.00000000      -0.02312763      -0.00074023      -0.00168832
O        9.16122465       9.45645095       6.09974424  T       0.00000000       0.00000000       0.00000000       0.00058136      -0.01200617       0.01758099
O        9.16077813       6.75730765       3.02679635  F       0.00000000       0.00000000       0.00000000      -0.00160988      -0.47950355       0.29696526
O        3.05359271       9.46023072       3.02679635  F       0.00000000       0.00000000       0.00000000      -0.00034397       0.47650804       0.29176961
O        9.16077813       9.46023072       3.02679635  F       0.00000000       0.00000000       0.00000000      -0.00186075       0.48166667       0.29722884
Pd       3.05359414       2.70292461       4.56516084  F       0.00000000       0.00000000       0.00000000       0.00679350       0.00329699       0.20639532
Pd       6.10718542       2.70292306       1.50000000  F       0.00000000       0.00000000       0.00000000       0.00023437       0.00044109      -0.90357613
Pd       3.05359287       8.10876720       4.56515841  F       0.00000000       0.00000000       0.00000000      -0.00294325       0.01130565       0.23923459
Pd       2.61454832       2.63694200      10.78749999  T       0.00000000       0.00000000       0.00000000      -0.02665411       0.01973643      -0.00895720
Pd       3.05527421       2.69170551       7.66727721  T       0.00000000       0.00000000       0.00000000       0.00143271       0.01047679      -0.00998838
Pd       3.05359271       2.70292306       1.50000000  F       0.00000000       0.00000000       0.00000000      -0.00011203       0.00047835      -0.90348971
Pd       4.58038906       5.40584612       3.02679635  F       0.00000000       0.00000000       0.00000000      -0.00080209      -0.00107766       0.05565550
Pd       4.58038878       0.00000011       6.09434618  F       0.00000000       0.00000000       0.00000000      -0.01065804      -0.05513589       0.06831298
Pd       4.58038808       5.40584530       6.09434913  F       0.00000000       0.00000000       0.00000000      -0.02166993      -0.05936334       0.07368337
Pd       7.63398177       0.00000000       3.02679635  F       0.00000000       0.00000000       0.00000000       0.00016752       0.00181498       0.05337956
Pd       3.05359271       8.10876919       1.50000000  F       0.00000000       0.00000000       0.00000000      -0.00038565       0.00043070      -0.90400925
Pd       6.08479880       8.09201178       7.66497534  T       0.00000000       0.00000000       0.00000000      -0.00377995       0.01947938       0.01400455
Pd       7.63398372      10.81169054       6.09434173  F       0.00000000       0.00000000       0.00000000      -0.00891918      -0.03899300       0.04827523
Pd       6.10718498       8.10876457       4.56515665  F       0.00000000       0.00000000       0.00000000      -0.00312180       0.01426771       0.18297589
Pd       1.52679863       5.40584339       6.09434623  F       0.00000000       0.00000000       0.00000000       0.01846500      -0.01926280       0.06890804
Pd       7.63398177       5.40584612       3.02679635  F       0.00000000       0.00000000       0.00000000      -0.00124070      -0.00309393       0.04957603
Pd       6.10718542       8.10876919       1.50000000  F       0.00000000       0.00000000       0.00000000      -0.00007572       0.00060269      -0.90175367
Pd       0.00665130       8.10030764       7.65881645  T       0.00000000       0.00000000       0.00000000      -0.00871839      -0.00500309       0.00103309
Pd       6.56998065       2.64311688      10.77185006  T       0.00000000       0.00000000       0.00000000       0.00055673       0.00517745      -0.00505394
Pd       1.52377179       5.38319826       9.12994157  T       0.00000000       0.00000000       0.00000000       0.04344164      -0.00922799      -0.00394382
Pd       7.61709740      -0.05189182       9.10600062  T       0.00000000       0.00000000       0.00000000       0.01462429       0.01683908       0.00061873
Pd       6.10874063       2.69136058       7.66092128  T       0.00000000       0.00000000       0.00000000      -0.01003774       0.00415847       0.00316621
Pd      12.53578601       8.09316025      10.79435889  T       0.00000000       0.00000000       0.00000000       0.01546637      -0.01120425      -0.01034910
Pd       6.10718636       2.70292272       4.56515365  F       0.00000000       0.00000000       0.00000000      -0.00818247       0.00913390       0.17870105
Pd       3.06827706       8.09401589       7.67623023  T       0.00000000       0.00000000       0.00000000      -0.01544151       0.00322269      -0.02126688
Pd       0.00000286       8.10876728       4.56515590  F       0.00000000       0.00000000       0.00000000       0.00087575       0.00641029       0.16754500
Pd       4.58373836       5.35091115       9.13886865  T       0.00000000       0.00000000       0.00000000      -0.01392963       0.02142572      -0.00849842
Pd       9.16077813       2.70292306       1.50000000  F       0.00000000       0.00000000       0.00000000      -0.00003042       0.00038613      -0.90329510
Pd       3.14793821       8.04320271      10.87658769  T       0.00000000       0.00000000       0.00000000      -0.00921854      -0.00366555      -0.02925741
Pd       0.00000000       8.10876919       1.50000000  F       0.00000000       0.00000000       0.00000000       0.00053466      -0.00034007      -0.90361382
Pd       8.62074860       8.13682971      10.82564240  T       0.00000000       0.00000000       0.00000000       0.01087929       0.02386571      -0.00319337
Pd       1.52679635       0.00000000       3.02679635  F       0.00000000       0.00000000       0.00000000      -0.00026471      -0.00043270       0.05607434
Pd       1.52679635       5.40584612       3.02679635  F       0.00000000       0.00000000       0.00000000       0.00115604      -0.00100008       0.05411040
Pd      10.68757448       0.00000000       3.02679635  F       0.00000000       0.00000000       0.00000000       0.00069274      -0.00064394       0.05325370
Pd      10.69048629       5.39573494       9.09463096  T       0.00000000       0.00000000       0.00000000      -0.00502858       0.00273539       0.00305119
Pd       9.16077751       2.70292195       4.56515514  F       0.00000000       0.00000000       0.00000000      -0.00220256      -0.01602688       0.17103272
Pd      10.68757769      10.81169125       6.09434037  F       0.00000000       0.00000000       0.00000000       0.05039351       0.01111673       0.07075456
Pd       9.16077986       8.10876364       4.56515811  F       0.00000000       0.00000000       0.00000000       0.00955117       0.00755674       0.12666751
Pd       1.52679695      10.81169175       6.09434358  F       0.00000000       0.00000000       0.00000000       0.02455970      -0.03989514       0.06589708
Pd       9.17180266       8.09854097       7.65166850  T       0.00000000       0.00000000       0.00000000       0.02361441      -0.03202610       0.00387571
Pd       9.14278508       2.71000491       7.66051492  T       0.00000000       0.00000000       0.00000000      -0.00142194      -0.00003991      -0.00544074
Pd      10.69716708      -0.02920350       9.10218195  T       0.00000000       0.00000000       0.00000000       0.01169652      -0.02643689       0.00981714
Pd       0.00000037       2.70292295       4.56515782  F       0.00000000       0.00000000       0.00000000       0.01035036      -0.00308481       0.18040248
Pd       1.55291471      10.77288241       9.14381558  T       0.00000000       0.00000000       0.00000000       0.01960308       0.02905914       0.00683150
Pd       9.40236183       2.32297352      10.89515251  T       0.00000000       0.00000000       0.00000000      -0.01022477       0.01924887       0.01241899
Pd       5.94401979       8.02752764      10.97378801  T       0.00000000       0.00000000       0.00000000       0.00357293      -0.02273922       0.00371758
Pd      12.24517950       2.71572847       7.66708829  T       0.00000000       0.00000000       0.00000000      -0.01389290      -0.01323506       0.00224964
Pd      10.68757879       5.40584476       6.09434230  F       0.00000000       0.00000000       0.00000000       0.00877684      -0.00359196       0.05241822
Pd       9.16077813       8.10876919       1.50000000  F       0.00000000       0.00000000       0.00000000      -0.00015564      -0.00039676      -0.90079711
Pd      10.68757448       5.40584612       3.02679635  F       0.00000000       0.00000000       0.00000000       0.00060421       0.00070298       0.04883422
Pd      11.97958490       2.34208564      10.90672152  T       0.00000000       0.00000000       0.00000000       0.00008979      -0.00552916      -0.00256392
Pd       4.58455458      10.80530125       9.14788153  T       0.00000000       0.00000000       0.00000000       0.00637288       0.00041080      -0.00901509
Pd       7.63398212       5.40584800       6.09434442  F       0.00000000       0.00000000       0.00000000      -0.01115972      -0.02958789       0.05741935
Pd       7.64131719       5.38205450       9.07552737  T       0.00000000       0.00000000       0.00000000       0.00504360       0.01263136       0.00312843
Pd       4.58038906       0.00000000       3.02679635  F       0.00000000       0.00000000       0.00000000      -0.00057666      -0.00108500       0.05710386
Pd       0.00000000       2.70292306       1.50000000  F       0.00000000       0.00000000       0.00000000      -0.00006987       0.00041448      -0.90228564
C        7.44456464       7.28453873      12.07228762  T       0.00000000       0.00000000       0.00000000       0.00880982      -0.00535119       0.00147744
O        7.41618031       6.56499716      13.02049148  T       0.00000000       0.00000000       0.00000000      -0.01612256      -0.01586487       0.02603534
O       10.67487599       3.11284794      12.36145150  T       0.00000000       0.00000000       0.00000000       0.01498741       0.00592653       0.01716598
C       10.67032205       4.53042477      12.59775036  T       0.00000000       0.00000000       0.00000000      -0.00834370       0.03454906      -0.00324106
H       11.51491568       4.77686039      13.26820715  T       0.00000000       0.00000000       0.00000000      -0.01194037       0.00757532       0.00220973
H       10.78069232       5.09711841      11.64729540  T       0.00000000       0.00000000       0.00000000      -0.01229307       0.00583731       0.00960765
H        9.71742209       4.81542177      13.07796451  T       0.00000000       0.00000000       0.00000000       0.02963813      -0.00270634       0.01105664
