111
Lattice="12.21437083684855 0.0 7e-16 1.7e-15 10.811692246786171 7e-16 0.0 0.0 29.250333490173453" Properties=species:S:1:pos:R:3:move_mask:L:1:momenta:R:3:forces:R:3 idx=2814 E_MACE=-575.1218897760832 d_min=1.9168760979020496 d_reactive=4.082202679467473 rank=0 dE_rel_meV=0.0 converged=T energy=-575.1218897760832 stress="0.0016812070462073198 0.00047385517006604157 -8.233162948999447e-05 0.00047385517006604157 -0.00011855515528677932 -0.000125376345042716 -8.233162948999447e-05 -0.000125376345042716 -0.003748220433488659" pbc="T T T"
O        6.11242119       1.36624548       9.20719119  T       0.00000000       0.00000000       0.00000000       0.00170098       0.01875236       0.02039745
O        9.16077813       4.05438459       3.02679635  F       0.00000000       0.00000000       0.00000000       0.00042656       0.47998587       0.30231608
O        6.07237565       6.74584209       9.17387045  T       0.00000000       0.00000000       0.00000000       0.00309736       0.00926847      -0.00444119
O        6.09472925       9.49486798       9.18920106  T       0.00000000       0.00000000       0.00000000      -0.01302728       0.01623818      -0.01363902
O        9.14382006       4.07120404       9.06952394  T       0.00000000       0.00000000       0.00000000      -0.00846645      -0.00171818      -0.02042636
O        3.02692419       1.34710690       9.23578361  T       0.00000000       0.00000000       0.00000000       0.00105138       0.00456132      -0.01449766
O        0.00000000       6.75730765       3.02679635  F       0.00000000       0.00000000       0.00000000      -0.00190270      -0.47462882       0.29144404
O        3.04052125       4.05299695       9.20014156  T       0.00000000       0.00000000       0.00000000       0.01334249       0.03441771      -0.00115851
O        0.00221346       9.45236393       6.11452094  T       0.00000000       0.00000000       0.00000000      -0.00005375      -0.00026832      -0.01758792
O        0.00000210       6.76116167       6.10263319  F       0.00000000       0.00000000       0.00000000       0.01979928       0.09070146       0.01854439
O       12.18303851       9.42622892       9.27093882  T       0.00000000       0.00000000       0.00000000       0.01572571      -0.00881486      -0.00950257
O       12.18181994       1.32288652       9.22146998  T       0.00000000       0.00000000       0.00000000       0.01029966      -0.00758082       0.00841566
O       12.20106934       4.04701519       9.17889694  T       0.00000000       0.00000000       0.00000000       0.00768358      -0.00142951      -0.00863725
O       -0.00094942       1.35413568       6.10701957  T       0.00000000       0.00000000       0.00000000       0.01495409       0.00719929      -0.01801312
O        0.00000111       4.05052849       6.10263306  F       0.00000000       0.00000000       0.00000000       0.01005027      -0.09868478       0.08410671
O        3.05359271       4.05438459       3.02679635  F       0.00000000       0.00000000       0.00000000       0.00177349       0.47558112       0.28947086
O        0.00000000       9.46023072       3.02679635  F       0.00000000       0.00000000       0.00000000      -0.00027474       0.47541646       0.29274095
O        3.05162336       4.04263526       6.11215555  T       0.00000000       0.00000000       0.00000000      -0.00404095      -0.00035297       0.00530363
O        3.05359271       1.35146153       3.02679635  F       0.00000000       0.00000000       0.00000000       0.00109784      -0.47444191       0.28500700
O        3.05043700       1.36071813       6.11056668  T       0.00000000       0.00000000       0.00000000      -0.00598958      -0.02165966      -0.00673522
O        0.00000000       4.05438459       3.02679635  F       0.00000000       0.00000000       0.00000000       0.00056811       0.47624488       0.29438534
O        0.00000000       1.35146153       3.02679635  F       0.00000000       0.00000000       0.00000000      -0.00012993      -0.47609269       0.29073262
O        9.16077813       1.35146153       3.02679635  F       0.00000000       0.00000000       0.00000000       0.00065279      -0.47858237       0.29587080
O        9.16077827       4.05052947       6.10263005  F       0.00000000       0.00000000       0.00000000       0.00194404      -0.09941426      -0.03571159
O       -0.01867724       6.72011251       9.14182047  T       0.00000000       0.00000000       0.00000000       0.02292318      -0.00870989      -0.01319626
O        9.16325649       1.33811043       9.21247082  T       0.00000000       0.00000000       0.00000000      -0.00213364       0.00247856      -0.02084497
O        9.16077740       1.35531546       6.10263307  F       0.00000000       0.00000000       0.00000000       0.03193461      -0.13375199      -0.11784514
O        6.06971139       4.07751033       9.13205774  T       0.00000000       0.00000000       0.00000000       0.00011691       0.00512847      -0.01183664
O        6.10544171       1.35461375       6.10363282  T       0.00000000       0.00000000       0.00000000       0.00056690       0.00513303       0.00334498
O        6.10516750       4.05042336       6.10094941  T       0.00000000       0.00000000       0.00000000      -0.01290706      -0.01032506      -0.01190972
O        6.10718542       1.35146153       3.02679635  F       0.00000000       0.00000000       0.00000000       0.00109928      -0.47406185       0.29626855
O        6.10718542       4.05438459       3.02679635  F       0.00000000       0.00000000       0.00000000       0.00070300       0.47612985       0.29701786
O        3.03869809       9.46772735       9.22337010  T       0.00000000       0.00000000       0.00000000      -0.01384768       0.03232287      -0.00902399
O        3.05081572       6.76546478       6.11005603  T       0.00000000       0.00000000       0.00000000       0.00613485       0.01157121       0.00577448
O        3.05401065       9.45377117       6.10887655  T       0.00000000       0.00000000       0.00000000      -0.00839522       0.00675514      -0.00782119
O        3.05359271       6.75730765       3.02679635  F       0.00000000       0.00000000       0.00000000      -0.00095882      -0.47349035       0.29268084
O        3.00875946       6.75773909       9.20127496  T       0.00000000       0.00000000       0.00000000       0.00049269      -0.00423006      -0.00621918
O        6.10718542       9.46023072       3.02679635  F       0.00000000       0.00000000       0.00000000       0.00097258       0.47579267       0.27576719
O        6.10718542       6.75730765       3.02679635  F       0.00000000       0.00000000       0.00000000       0.00156603      -0.47737312       0.28442244
O        6.10480424       9.45261553       6.11770939  T       0.00000000       0.00000000       0.00000000       0.00841502      -0.01742182      -0.00872451
O        6.10534049       6.76871571       6.12214518  T       0.00000000       0.00000000       0.00000000      -0.00372050       0.00789748      -0.01438983
O        9.13964654       6.71946307       9.02723969  T       0.00000000       0.00000000       0.00000000       0.01201491      -0.02015608      -0.01632996
O        9.11576559       9.44065371       9.22797280  T       0.00000000       0.00000000       0.00000000      -0.00264217      -0.01534520      -0.01552493
O        9.16117437       6.76598461       6.09463025  T       0.00000000       0.00000000       0.00000000      -0.00371778       0.00053135       0.00489939
O        9.16142397       9.46620730       6.09510616  T       0.00000000       0.00000000       0.00000000      -0.01541574       0.03002839      -0.02100159
O        9.16077813       6.75730765       3.02679635  F       0.00000000       0.00000000       0.00000000      -0.00099820      -0.48618518       0.30302780
O        3.05359271       9.46023072       3.02679635  F       0.00000000       0.00000000       0.00000000       0.00217993       0.47280923       0.28834990
O        9.16077813       9.46023072       3.02679635  F       0.00000000       0.00000000       0.00000000      -0.00156675       0.47533063       0.29533851
Pd       3.05359414       2.70292461       4.56516084  F       0.00000000       0.00000000       0.00000000      -0.01456920      -0.00862351       0.27090574
Pd       6.10718542       2.70292306       1.50000000  F       0.00000000       0.00000000       0.00000000      -0.00005144      -0.00152983      -0.90311366
Pd       3.05359287       8.10876720       4.56515841  F       0.00000000       0.00000000       0.00000000      -0.00028290       0.00762511       0.24815420
Pd       3.39055799       2.74234375      10.84107416  T       0.00000000       0.00000000       0.00000000       0.00259054      -0.01968692      -0.00174625
Pd       3.03229246       2.69382247       7.68248673  T       0.00000000       0.00000000       0.00000000      -0.02024225      -0.02963054      -0.00575059
Pd       3.05359271       2.70292306       1.50000000  F       0.00000000       0.00000000       0.00000000       0.00039820      -0.00051611      -0.90417040
Pd       4.58038906       5.40584612       3.02679635  F       0.00000000       0.00000000       0.00000000       0.00050368       0.00190961       0.06312674
Pd       4.58038878       0.00000011       6.09434618  F       0.00000000       0.00000000       0.00000000      -0.00770066      -0.01042044       0.08595805
Pd       4.58038808       5.40584530       6.09434913  F       0.00000000       0.00000000       0.00000000      -0.02598560       0.04974266       0.07254325
Pd       7.63398177       0.00000000       3.02679635  F       0.00000000       0.00000000       0.00000000      -0.00266588      -0.00112778       0.05258177
Pd       3.05359271       8.10876919       1.50000000  F       0.00000000       0.00000000       0.00000000       0.00029525       0.00057839      -0.90383360
Pd       6.08926857       8.12166076       7.72173673  T       0.00000000       0.00000000       0.00000000       0.00208975       0.03092679       0.00882534
Pd       7.63398372      10.81169054       6.09434173  F       0.00000000       0.00000000       0.00000000      -0.09579094      -0.00272940       0.06143854
Pd       6.10718498       8.10876457       4.56515665  F       0.00000000       0.00000000       0.00000000      -0.00862599       0.00394508       0.51757370
Pd       1.52679863       5.40584339       6.09434623  F       0.00000000       0.00000000       0.00000000       0.03734897      -0.02987965       0.06002283
Pd       7.63398177       5.40584612       3.02679635  F       0.00000000       0.00000000       0.00000000       0.00054254       0.00127231       0.05779201
Pd       6.10718542       8.10876919       1.50000000  F       0.00000000       0.00000000       0.00000000      -0.00021401       0.00095040      -0.90696425
Pd       0.00713756       8.10654958       7.67276135  T       0.00000000       0.00000000       0.00000000      -0.01596589       0.00366783      -0.01547764
Pd       6.29759411       2.64731982      10.83212040  T       0.00000000       0.00000000       0.00000000      -0.00248099       0.01192601       0.00986907
Pd       1.51115964       5.38662911       9.14302713  T       0.00000000       0.00000000       0.00000000       0.00424291      -0.02186357       0.00288026
Pd       7.61748229      -0.00828767       9.11311518  T       0.00000000       0.00000000       0.00000000      -0.00074883       0.00100376      -0.00409783
Pd       6.08735374       2.70410609       7.65212927  T       0.00000000       0.00000000       0.00000000       0.00346569      -0.00350979      -0.00071621
Pd      11.91436024       8.10875879      10.86075783  T       0.00000000       0.00000000       0.00000000       0.01212394       0.02249716      -0.01055783
Pd       6.10718636       2.70292272       4.56515365  F       0.00000000       0.00000000       0.00000000      -0.00821220      -0.02030967       0.13539325
Pd       3.03975266       8.11584305       7.67106477  T       0.00000000       0.00000000       0.00000000       0.01280676       0.00913507       0.00602423
Pd       0.00000286       8.10876728       4.56515590  F       0.00000000       0.00000000       0.00000000       0.00665456       0.02611920       0.22867638
Pd       4.55357673       5.43463714       9.08516233  T       0.00000000       0.00000000       0.00000000       0.00516745      -0.01210015       0.01588122
Pd       9.16077813       2.70292306       1.50000000  F       0.00000000       0.00000000       0.00000000      -0.00025835      -0.00203008      -0.90356311
Pd       2.59181428       8.10982617      10.77754743  T       0.00000000       0.00000000       0.00000000      -0.02926687      -0.00886272       0.00484578
Pd       0.00000000       8.10876919       1.50000000  F       0.00000000       0.00000000       0.00000000       0.00061734       0.00245053      -0.90449670
Pd       9.14300037       7.82621565      10.88184184  T       0.00000000       0.00000000       0.00000000       0.00333331       0.00379723       0.03366289
Pd       1.52679635       0.00000000       3.02679635  F       0.00000000       0.00000000       0.00000000       0.00118501      -0.00171630       0.05814699
Pd       1.52679635       5.40584612       3.02679635  F       0.00000000       0.00000000       0.00000000       0.00158822       0.00063492       0.06264607
Pd      10.68757448       0.00000000       3.02679635  F       0.00000000       0.00000000       0.00000000       0.00295489       0.00003665       0.05018045
Pd      10.68051156       5.38261772       9.04786036  T       0.00000000       0.00000000       0.00000000      -0.00584569      -0.00217796      -0.02692793
Pd       9.16077751       2.70292195       4.56515514  F       0.00000000       0.00000000       0.00000000       0.00227280       0.01284199       0.14622695
Pd      10.68757769      10.81169125       6.09434037  F       0.00000000       0.00000000       0.00000000       0.04620175      -0.00696174       0.07391931
Pd       9.16077986       8.10876364       4.56515811  F       0.00000000       0.00000000       0.00000000       0.00304402       0.05216383       0.07126855
Pd       1.52679695      10.81169175       6.09434358  F       0.00000000       0.00000000       0.00000000       0.01567506      -0.02014665       0.08545522
Pd       9.14486708       8.13504237       7.64134556  T       0.00000000       0.00000000       0.00000000      -0.01539475       0.01879737       0.00090103
Pd       9.16205213       2.67116494       7.64997690  T       0.00000000       0.00000000       0.00000000       0.00416475       0.00443827       0.00305783
Pd      10.65711118      -0.02469319       9.18097392  T       0.00000000       0.00000000       0.00000000      -0.00952057      -0.00846905      -0.00860261
Pd       0.00000037       2.70292295       4.56515782  F       0.00000000       0.00000000       0.00000000       0.00116296      -0.01381044       0.19503492
Pd       1.50465047      10.80503961       9.20820548  T       0.00000000       0.00000000       0.00000000       0.00306135       0.00472741      -0.01504574
Pd       9.15183595       2.96046083      10.82166894  T       0.00000000       0.00000000       0.00000000       0.03830511      -0.01559933      -0.00248022
Pd       8.36614444       5.26133759      11.97988228  T       0.00000000       0.00000000       0.00000000       0.00688624       0.01113474       0.00491975
Pd      12.21382765       2.68474773       7.66515035  T       0.00000000       0.00000000       0.00000000      -0.00950945      -0.02145941       0.00942643
Pd      10.68757879       5.40584476       6.09434230  F       0.00000000       0.00000000       0.00000000       0.00575166       0.00567752       0.02169592
Pd       9.16077813       8.10876919       1.50000000  F       0.00000000       0.00000000       0.00000000      -0.00072110       0.00295293      -0.89853875
Pd      10.68757448       5.40584612       3.02679635  F       0.00000000       0.00000000       0.00000000      -0.00097933      -0.00096607       0.04768060
Pd      11.93092723       2.72518711      10.81203452  T       0.00000000       0.00000000       0.00000000      -0.01426855      -0.00361785      -0.00131932
Pd       4.57316585      10.80878922       9.14440751  T       0.00000000       0.00000000       0.00000000       0.01228995      -0.00207400       0.00644235
Pd       7.63398212       5.40584800       6.09434442  F       0.00000000       0.00000000       0.00000000      -0.08045742       0.08258022       0.06413532
Pd       7.58177258       5.42042757       9.03689421  T       0.00000000       0.00000000       0.00000000       0.04004276       0.00342580       0.00959204
Pd       4.58038906       0.00000000       3.02679635  F       0.00000000       0.00000000       0.00000000      -0.00044327      -0.00141798       0.06175269
Pd       0.00000000       2.70292306       1.50000000  F       0.00000000       0.00000000       0.00000000      -0.00033087      -0.00169977      -0.90264392
C        9.93146790       6.36651546      11.92736242  T       0.00000000       0.00000000       0.00000000      -0.03142819       0.01423315       0.01865781
O       11.09824069       6.41408250      12.28767167  T       0.00000000       0.00000000       0.00000000       0.03969116       0.02423611      -0.01386205
O        6.58497631       4.05890071      12.30191143  T       0.00000000       0.00000000       0.00000000      -0.00449727       0.01107784      -0.00029626
C        5.39427028       4.78535400      12.61709810  T       0.00000000       0.00000000       0.00000000      -0.00085072       0.00914239       0.00049137
H        5.30894292       4.88907240      13.71515763  T       0.00000000       0.00000000       0.00000000      -0.01864102       0.01424538       0.00637841
H        5.37732009       5.78161825      12.13591531  T       0.00000000       0.00000000       0.00000000      -0.00410276       0.01239330      -0.00500281
H        4.48832311       4.22841412      12.24567974  T       0.00000000       0.00000000       0.00000000       0.02049581      -0.01490646       0.00443328
