111
Lattice="12.21437083684855 0.0 7e-16 1.7e-15 10.811692246786171 7e-16 0.0 0.0 29.250333490173453" Properties=species:S:1:pos:R:3:move_mask:L:1:momenta:R:3:forces:R:3 idx=3017 E_MACE=-574.7515145344623 d_min=1.914749017580971 d_reactive=5.281469868652834 rank=5 dE_rel_meV=370.3752416208772 converged=T energy=-574.7515145344623 stress="0.000987438056261467 -6.270211032194275e-06 1.723135928844664e-05 -6.270211032194275e-06 -0.0010965542327900021 -0.0001528378307091422 1.723135928844664e-05 -0.0001528378307091422 -0.003999702643160612" pbc="T T T"
O        6.10820074       1.32453308       9.19540552  T       0.00000000       0.00000000       0.00000000       0.00179477       0.01812134       0.00979447
O        9.16077813       4.05438459       3.02679635  F       0.00000000       0.00000000       0.00000000       0.00048376       0.47718871       0.29426527
O        6.12378158       6.71673593       9.18319635  T       0.00000000       0.00000000       0.00000000      -0.00836809      -0.01024491      -0.01624266
O        6.13507707       9.43597812       9.21680503  T       0.00000000       0.00000000       0.00000000      -0.01300657       0.00659194       0.00104408
O        9.18412232       4.03353959       9.20285218  T       0.00000000       0.00000000       0.00000000      -0.00343780      -0.01649677      -0.02169177
O        3.10543652       1.31734807       9.15733287  T       0.00000000       0.00000000       0.00000000      -0.00669815       0.01012678       0.02940441
O        0.00000000       6.75730765       3.02679635  F       0.00000000       0.00000000       0.00000000      -0.00075323      -0.47968525       0.29774723
O        3.05547152       4.05036394       9.18401848  T       0.00000000       0.00000000       0.00000000      -0.02435077       0.00242405      -0.00155685
O       -0.00038390       9.45675635       6.10014552  T       0.00000000       0.00000000       0.00000000       0.01932035      -0.01781663       0.02361889
O        0.00000210       6.76116167       6.10263319  F       0.00000000       0.00000000       0.00000000       0.00103290      -0.02938603      -0.03987254
O       12.23278901       9.44076355       9.17335237  T       0.00000000       0.00000000       0.00000000       0.01479930       0.00857986       0.00862271
O       12.17411781       1.30852640       9.14690118  T       0.00000000       0.00000000       0.00000000       0.00035066       0.00817835      -0.00173473
O       12.22085987       4.05646358       9.16156587  T       0.00000000       0.00000000       0.00000000      -0.00259900       0.01850747       0.00322727
O       -0.00451720       1.35699289       6.10096238  T       0.00000000       0.00000000       0.00000000       0.01294677       0.00740878       0.00829253
O        0.00000111       4.05052849       6.10263306  F       0.00000000       0.00000000       0.00000000       0.00258093       0.00513636       0.02512801
O        3.05359271       4.05438459       3.02679635  F       0.00000000       0.00000000       0.00000000      -0.00303105       0.47599748       0.29241293
O        0.00000000       9.46023072       3.02679635  F       0.00000000       0.00000000       0.00000000      -0.00050708       0.47979996       0.29441843
O        3.05426582       4.04996742       6.10722919  T       0.00000000       0.00000000       0.00000000      -0.00174693       0.00215166      -0.01224961
O        3.05359271       1.35146153       3.02679635  F       0.00000000       0.00000000       0.00000000      -0.00059209      -0.47743302       0.29177728
O        3.05762924       1.36006513       6.10683695  T       0.00000000       0.00000000       0.00000000       0.00626587      -0.00415445      -0.02283529
O        0.00000000       4.05438459       3.02679635  F       0.00000000       0.00000000       0.00000000       0.00369589       0.47803042       0.29507253
O        0.00000000       1.35146153       3.02679635  F       0.00000000       0.00000000       0.00000000       0.00035802      -0.47897856       0.29364796
O        9.16077813       1.35146153       3.02679635  F       0.00000000       0.00000000       0.00000000       0.00099702      -0.47739647       0.29441647
O        9.16077827       4.05052947       6.10263005  F       0.00000000       0.00000000       0.00000000      -0.00348478      -0.04324399       0.05209170
O        0.00352628       6.73698759       9.14285625  T       0.00000000       0.00000000       0.00000000      -0.00191174      -0.00861536       0.02412103
O        9.17455849       1.32150448       9.18247019  T       0.00000000       0.00000000       0.00000000       0.00815461       0.00450022       0.00112487
O        9.16077740       1.35531546       6.10263307  F       0.00000000       0.00000000       0.00000000      -0.00581555       0.00631610      -0.01068002
O        6.08753690       4.02735480       9.21903792  T       0.00000000       0.00000000       0.00000000       0.01119174       0.00735851       0.00760933
O        6.10839599       1.35667444       6.10450727  T       0.00000000       0.00000000       0.00000000      -0.00448873      -0.00023143      -0.00874918
O        6.10697572       4.04552473       6.11136040  T       0.00000000       0.00000000       0.00000000       0.00408064       0.00655756      -0.00877177
O        6.10718542       1.35146153       3.02679635  F       0.00000000       0.00000000       0.00000000      -0.00080619      -0.47422849       0.28899189
O        6.10718542       4.05438459       3.02679635  F       0.00000000       0.00000000       0.00000000      -0.00145151       0.47627499       0.29333362
O        3.06658566       9.44690962       9.19818347  T       0.00000000       0.00000000       0.00000000       0.00286437       0.02503136      -0.00442380
O        3.05663558       6.76075050       6.10248168  T       0.00000000       0.00000000       0.00000000      -0.02444890       0.00549564       0.00076524
O        3.05582823       9.45243526       6.10760185  T       0.00000000       0.00000000       0.00000000      -0.01236841       0.00078753       0.00199231
O        3.05359271       6.75730765       3.02679635  F       0.00000000       0.00000000       0.00000000      -0.00038713      -0.47512671       0.29340878
O        3.06382555       6.73323905       9.18182367  T       0.00000000       0.00000000       0.00000000      -0.00370821       0.01398766       0.00442343
O        6.10718542       9.46023072       3.02679635  F       0.00000000       0.00000000       0.00000000       0.00000899       0.47608853       0.29155856
O        6.10718542       6.75730765       3.02679635  F       0.00000000       0.00000000       0.00000000      -0.00091281      -0.47469337       0.28681852
O        6.10845456       9.44962559       6.11243682  T       0.00000000       0.00000000       0.00000000      -0.00348113       0.00921611      -0.01149416
O        6.10702615       6.76356376       6.10612000  T       0.00000000       0.00000000       0.00000000       0.00597059      -0.01081754      -0.02407381
O        9.13931977       6.71012512       9.13714616  T       0.00000000       0.00000000       0.00000000      -0.00098757       0.03955659       0.01381436
O        9.12533591       9.44034201       9.17280718  T       0.00000000       0.00000000       0.00000000       0.02121527       0.00568804       0.02395014
O        9.15908118       6.76058023       6.09888646  T       0.00000000       0.00000000       0.00000000      -0.00248466      -0.01136382      -0.01622065
O        9.15851176       9.45037252       6.10566930  T       0.00000000       0.00000000       0.00000000      -0.00438854       0.03111071      -0.00213722
O        9.16077813       6.75730765       3.02679635  F       0.00000000       0.00000000       0.00000000       0.00158067      -0.47814963       0.28978332
O        3.05359271       9.46023072       3.02679635  F       0.00000000       0.00000000       0.00000000      -0.00140474       0.47830039       0.29570092
O        9.16077813       9.46023072       3.02679635  F       0.00000000       0.00000000       0.00000000       0.00129647       0.48043896       0.29383461
Pd       3.05359414       2.70292461       4.56516084  F       0.00000000       0.00000000       0.00000000       0.00996647       0.00017436       0.22271764
Pd       6.10718542       2.70292306       1.50000000  F       0.00000000       0.00000000       0.00000000      -0.00039975       0.00055221      -0.90403384
Pd       3.05359287       8.10876720       4.56515841  F       0.00000000       0.00000000       0.00000000       0.00776839       0.00795532       0.17908527
Pd       2.82076805       2.34409874      10.90908699  T       0.00000000       0.00000000       0.00000000      -0.01718250       0.00791818      -0.01114920
Pd       3.08326289       2.71325806       7.66932892  T       0.00000000       0.00000000       0.00000000      -0.00689652       0.00113447      -0.00060574
Pd       3.05359271       2.70292306       1.50000000  F       0.00000000       0.00000000       0.00000000       0.00006360       0.00050648      -0.90399050
Pd       4.58038906       5.40584612       3.02679635  F       0.00000000       0.00000000       0.00000000       0.00119931      -0.00155351       0.05508021
Pd       4.58038878       0.00000011       6.09434618  F       0.00000000       0.00000000       0.00000000       0.03861484      -0.03364739       0.07676024
Pd       4.58038808       5.40584530       6.09434913  F       0.00000000       0.00000000       0.00000000       0.03194821      -0.02856748       0.08357692
Pd       7.63398177       0.00000000       3.02679635  F       0.00000000       0.00000000       0.00000000      -0.00036603      -0.00136333       0.05642876
Pd       3.05359271       8.10876919       1.50000000  F       0.00000000       0.00000000       0.00000000       0.00056286      -0.00029013      -0.90380047
Pd       6.11940226       8.09496208       7.67616549  T       0.00000000       0.00000000       0.00000000      -0.00188532      -0.00325315      -0.01133964
Pd       7.63398372      10.81169054       6.09434173  F       0.00000000       0.00000000       0.00000000      -0.00334070      -0.06107537       0.07110971
Pd       6.10718498       8.10876457       4.56515665  F       0.00000000       0.00000000       0.00000000      -0.00277289       0.01168584       0.24709197
Pd       1.52679863       5.40584339       6.09434623  F       0.00000000       0.00000000       0.00000000       0.01251637       0.01428226       0.06972211
Pd       7.63398177       5.40584612       3.02679635  F       0.00000000       0.00000000       0.00000000      -0.00133204      -0.00023717       0.05573169
Pd       6.10718542       8.10876919       1.50000000  F       0.00000000       0.00000000       0.00000000      -0.00029248       0.00040772      -0.90445129
Pd       0.01378406       8.09963837       7.65571111  T       0.00000000       0.00000000       0.00000000       0.00734635       0.00527992      -0.00708395
Pd       5.67036701       2.63876070      10.78850719  T       0.00000000       0.00000000       0.00000000      -0.03182630       0.01158586      -0.00640629
Pd       1.52894687       5.39583342       9.09583807  T       0.00000000       0.00000000       0.00000000       0.00770380      -0.01913274       0.00308333
Pd       7.63887325      -0.00681288       9.14422805  T       0.00000000       0.00000000       0.00000000      -0.01444045       0.01104938       0.00412769
Pd       6.11027974       2.69289774       7.66805623  T       0.00000000       0.00000000       0.00000000      -0.01155414       0.00177208      -0.00412522
Pd      11.66974041       8.13725447      10.82887953  T       0.00000000       0.00000000       0.00000000       0.00936233       0.01187706       0.00279100
Pd       6.10718636       2.70292272       4.56515365  F       0.00000000       0.00000000       0.00000000       0.00756401       0.00595743       0.21789871
Pd       3.05910806       8.09920403       7.66025470  T       0.00000000       0.00000000       0.00000000      -0.00121963       0.00206163       0.00214052
Pd       0.00000286       8.10876728       4.56515590  F       0.00000000       0.00000000       0.00000000       0.00574948       0.00713658       0.15837548
Pd       4.57660889       5.38281340       9.13134165  T       0.00000000       0.00000000       0.00000000       0.03745909      -0.00344953      -0.00227388
Pd       9.16077813       2.70292306       1.50000000  F       0.00000000       0.00000000       0.00000000       0.00011897       0.00015052      -0.90246360
Pd       3.37933765       8.08916892      10.79691869  T       0.00000000       0.00000000       0.00000000       0.01153411      -0.00946283      -0.01148312
Pd       0.00000000       8.10876919       1.50000000  F       0.00000000       0.00000000       0.00000000      -0.00028896      -0.00049221      -0.90174458
Pd       8.99351529       8.02931447      10.97254329  T       0.00000000       0.00000000       0.00000000       0.00536774      -0.02537311       0.00491128
Pd       1.52679635       0.00000000       3.02679635  F       0.00000000       0.00000000       0.00000000       0.00074333      -0.00069720       0.05527509
Pd       1.52679635       5.40584612       3.02679635  F       0.00000000       0.00000000       0.00000000       0.00030687       0.00111254       0.05066719
Pd      10.68757448       0.00000000       3.02679635  F       0.00000000       0.00000000       0.00000000      -0.00066251       0.00107576       0.05327913
Pd      10.69557219       5.38537568       9.07576253  T       0.00000000       0.00000000       0.00000000       0.00321545      -0.00792607       0.00257224
Pd       9.16077751       2.70292195       4.56515514  F       0.00000000       0.00000000       0.00000000      -0.00714329       0.00081519       0.16126054
Pd      10.68757769      10.81169125       6.09434037  F       0.00000000       0.00000000       0.00000000      -0.04166855      -0.05211327       0.04780486
Pd       9.16077986       8.10876364       4.56515811  F       0.00000000       0.00000000       0.00000000      -0.00573972       0.00565315       0.17531170
Pd       1.52679695      10.81169175       6.09434358  F       0.00000000       0.00000000       0.00000000       0.02164742       0.01635197       0.07534470
Pd       9.13528551       8.09319616       7.66453989  T       0.00000000       0.00000000       0.00000000       0.01710495       0.01212821       0.02427813
Pd       9.16225852       2.69440956       7.65985997  T       0.00000000       0.00000000       0.00000000      -0.01096731       0.00891001       0.00143755
Pd      10.67244441      -0.04827346       9.10733399  T       0.00000000       0.00000000       0.00000000      -0.00369488       0.00224197       0.00295188
Pd       0.00000037       2.70292295       4.56515782  F       0.00000000       0.00000000       0.00000000      -0.00910532      -0.00425427       0.15996747
Pd       1.53746191      10.78128573       9.10855902  T       0.00000000       0.00000000       0.00000000       0.00757857       0.00143982       0.00830125
Pd       9.62285963       2.64001619      10.77002685  T       0.00000000       0.00000000       0.00000000      -0.00478656       0.01629490      -0.00900324
Pd       6.20097233       8.04059298      10.87573227  T       0.00000000       0.00000000       0.00000000      -0.00979152       0.00087755      -0.01793557
Pd      12.19306364       2.70959548       7.66192250  T       0.00000000       0.00000000       0.00000000       0.00842202       0.00395884      -0.01759526
Pd      10.68757879       5.40584476       6.09434230  F       0.00000000       0.00000000       0.00000000       0.00427965       0.00135549       0.05794348
Pd       9.16077813       8.10876919       1.50000000  F       0.00000000       0.00000000       0.00000000      -0.00001913       0.00054809      -0.90169783
Pd      10.68757448       5.40584612       3.02679635  F       0.00000000       0.00000000       0.00000000      -0.00036057      -0.00171724       0.04944768
Pd      12.45438856       2.33673297      10.89660404  T       0.00000000       0.00000000       0.00000000       0.01903845       0.01268533       0.02335864
Pd       4.60810581      10.77307070       9.14902465  T       0.00000000       0.00000000       0.00000000      -0.02431697      -0.00083716      -0.01345920
Pd       7.63398212       5.40584800       6.09434442  F       0.00000000       0.00000000       0.00000000      -0.03123273      -0.04044733       0.06951169
Pd       7.63728308       5.35373387       9.13933159  T       0.00000000       0.00000000       0.00000000      -0.02735138      -0.01606828      -0.00652068
Pd       4.58038906       0.00000000       3.02679635  F       0.00000000       0.00000000       0.00000000      -0.00014647      -0.00010279       0.05827354
Pd       0.00000000       2.70292306       1.50000000  F       0.00000000       0.00000000       0.00000000       0.00016193       0.00059961      -0.90254934
C       10.49148020       7.28356654      12.07354157  T       0.00000000       0.00000000       0.00000000       0.00707655      -0.00213588       0.02567959
O       10.45488618       6.56985345      13.02621564  T       0.00000000       0.00000000       0.00000000      -0.00526919      -0.00408805      -0.00496142
O        1.51989886       3.12489004      12.36276462  T       0.00000000       0.00000000       0.00000000      -0.00633382       0.01280538      -0.00022753
C        1.51840456       4.54282034      12.60083141  T       0.00000000       0.00000000       0.00000000      -0.00010791      -0.00045168      -0.00976233
H        2.37269818       4.78669396      13.25786480  T       0.00000000       0.00000000       0.00000000       0.02954868       0.02422221       0.00565530
H        1.60997024       5.11070950      11.64928265  T       0.00000000       0.00000000       0.00000000      -0.00429850       0.00820952       0.01290102
H        0.57735331       4.82786598      13.10220703  T       0.00000000       0.00000000       0.00000000      -0.01054401      -0.01092534       0.00332952
