111
Lattice="12.21437083684855 0.0 7e-16 1.7e-15 10.811692246786171 7e-16 0.0 0.0 29.250333490173453" Properties=species:S:1:pos:R:3:move_mask:L:1:momenta:R:3:forces:R:3 idx=2314 E_MACE=-574.7501308444953 d_min=1.9570273250991252 d_reactive=5.065968508318002 rank=8 dE_rel_meV=371.7589315879195 converged=T energy=-574.7501308444953 stress="0.0011576062595321773 4.519441950596752e-06 1.5348524582545784e-05 4.519441950596752e-06 -0.0010314924025726204 4.339788806503493e-05 1.5348524582545784e-05 4.339788806503493e-05 -0.004024581652247418" pbc="T T T"
O        6.11422371       1.32683231       9.12069419  T       0.00000000       0.00000000       0.00000000      -0.00657034       0.00121410       0.00733061
O        9.16077813       4.05438459       3.02679635  F       0.00000000       0.00000000       0.00000000       0.00014315       0.47799911       0.29272011
O        6.07145435       6.73721523       9.15821506  T       0.00000000       0.00000000       0.00000000      -0.00675252       0.00767179       0.01374251
O        6.11944844       9.47524649       9.14579756  T       0.00000000       0.00000000       0.00000000      -0.00861769      -0.01443703      -0.01060452
O        9.15828663       4.05702957       9.20542344  T       0.00000000       0.00000000       0.00000000      -0.00443675      -0.01013578      -0.00732738
O        3.05135835       1.31740495       9.13669112  T       0.00000000       0.00000000       0.00000000      -0.01913697      -0.00793268       0.01595432
O        0.00000000       6.75730765       3.02679635  F       0.00000000       0.00000000       0.00000000      -0.00094348      -0.47396747       0.28671340
O        3.03733113       4.04482678       9.17536653  T       0.00000000       0.00000000       0.00000000       0.00243559       0.03502501      -0.00395697
O        0.00025893       9.45031915       6.11294489  T       0.00000000       0.00000000       0.00000000       0.00001784       0.01758010      -0.02471105
O        0.00000210       6.76116167       6.10263319  F       0.00000000       0.00000000       0.00000000       0.00886336       0.03818661       0.05136236
O       12.20159170       9.45369820       9.21233780  T       0.00000000       0.00000000       0.00000000      -0.00509455       0.00911874       0.00600368
O       12.24401960       1.34215586       9.20199349  T       0.00000000       0.00000000       0.00000000      -0.02076980      -0.02102864       0.00130552
O       12.23908809       4.03925386       9.22315577  T       0.00000000       0.00000000       0.00000000       0.00897805       0.01000433      -0.00489444
O        0.00039660       1.35899056       6.10713393  T       0.00000000       0.00000000       0.00000000      -0.00006274       0.00056623      -0.00144320
O        0.00000111       4.05052849       6.10263306  F       0.00000000       0.00000000       0.00000000      -0.00233070      -0.05748682       0.06327092
O        3.05359271       4.05438459       3.02679635  F       0.00000000       0.00000000       0.00000000       0.00180702       0.47964493       0.29305548
O        0.00000000       9.46023072       3.02679635  F       0.00000000       0.00000000       0.00000000      -0.00050015       0.47656015       0.29427637
O        3.05175633       4.04864743       6.10363069  T       0.00000000       0.00000000       0.00000000       0.00425997      -0.00415295       0.00417776
O        3.05359271       1.35146153       3.02679635  F       0.00000000       0.00000000       0.00000000       0.00180873      -0.47888262       0.29190994
O        3.05153371       1.35554791       6.09975814  T       0.00000000       0.00000000       0.00000000       0.01089882       0.01323364       0.00516348
O        0.00000000       4.05438459       3.02679635  F       0.00000000       0.00000000       0.00000000      -0.00003292       0.47540128       0.28937785
O        0.00000000       1.35146153       3.02679635  F       0.00000000       0.00000000       0.00000000       0.00046633      -0.47728079       0.29290393
O        9.16077813       1.35146153       3.02679635  F       0.00000000       0.00000000       0.00000000       0.00033496      -0.47683637       0.29566667
O        9.16077827       4.05052947       6.10263005  F       0.00000000       0.00000000       0.00000000       0.01634365      -0.02798275       0.03140610
O        0.00353535       6.74129195       9.20595593  T       0.00000000       0.00000000       0.00000000       0.00292373       0.00821941       0.01260526
O        9.15683953       1.35379794       9.19223544  T       0.00000000       0.00000000       0.00000000      -0.00164181      -0.00796720      -0.01325851
O        9.16077740       1.35531546       6.10263307  F       0.00000000       0.00000000       0.00000000       0.01828038       0.04722918       0.03779004
O        6.13959196       4.06501684       9.14477094  T       0.00000000       0.00000000       0.00000000      -0.01146955       0.01689443      -0.00649861
O        6.10738776       1.35369924       6.09729213  T       0.00000000       0.00000000       0.00000000      -0.00055891       0.00301243      -0.00296922
O        6.10963367       4.05236013       6.09849613  T       0.00000000       0.00000000       0.00000000      -0.00266020      -0.01394550      -0.01406994
O        6.10718542       1.35146153       3.02679635  F       0.00000000       0.00000000       0.00000000      -0.00232460      -0.48108780       0.29823768
O        6.10718542       4.05438459       3.02679635  F       0.00000000       0.00000000       0.00000000      -0.00029101       0.48174601       0.29661646
O        3.07202289       9.44968827       9.19027731  T       0.00000000       0.00000000       0.00000000      -0.00796917       0.01099417       0.01885688
O        3.05332911       6.76081900       6.10469796  T       0.00000000       0.00000000       0.00000000      -0.00940784       0.00569528      -0.01247428
O        3.05279528       9.45280517       6.10760345  T       0.00000000       0.00000000       0.00000000      -0.00719920      -0.00209499      -0.00219905
O        3.05359271       6.75730765       3.02679635  F       0.00000000       0.00000000       0.00000000       0.00126478      -0.47537579       0.29205426
O        3.06807488       6.73582135       9.19594607  T       0.00000000       0.00000000       0.00000000       0.00398227       0.00212633      -0.01071119
O        6.10718542       9.46023072       3.02679635  F       0.00000000       0.00000000       0.00000000       0.00349469       0.47815510       0.29722030
O        6.10718542       6.75730765       3.02679635  F       0.00000000       0.00000000       0.00000000       0.00011695      -0.47988593       0.29568967
O        6.10746730       9.45844290       6.10081342  T       0.00000000       0.00000000       0.00000000      -0.00110516      -0.01480609       0.00106297
O        6.10300904       6.76259360       6.10190890  T       0.00000000       0.00000000       0.00000000       0.00665875       0.00099681       0.00474112
O        9.21386077       6.75270886       9.18060882  T       0.00000000       0.00000000       0.00000000       0.01214174      -0.00494841      -0.00331113
O        9.17633396       9.48004758       9.16557112  T       0.00000000       0.00000000       0.00000000      -0.01870370      -0.01461567       0.00877957
O        9.16499933       6.76744643       6.10838269  T       0.00000000       0.00000000       0.00000000       0.00896071      -0.02640956      -0.01444219
O        9.16221192       9.45656711       6.10362358  T       0.00000000       0.00000000       0.00000000       0.01084519       0.00767960      -0.02120616
O        9.16077813       6.75730765       3.02679635  F       0.00000000       0.00000000       0.00000000      -0.00046988      -0.47816293       0.29414226
O        3.05359271       9.46023072       3.02679635  F       0.00000000       0.00000000       0.00000000       0.00062348       0.47707853       0.29571219
O        9.16077813       9.46023072       3.02679635  F       0.00000000       0.00000000       0.00000000      -0.00285902       0.47510354       0.29235235
Pd       3.05359414       2.70292461       4.56516084  F       0.00000000       0.00000000       0.00000000      -0.01016063       0.01177237       0.17535302
Pd       6.10718542       2.70292306       1.50000000  F       0.00000000       0.00000000       0.00000000       0.00011992       0.00002140      -0.90126996
Pd       3.05359287       8.10876720       4.56515841  F       0.00000000       0.00000000       0.00000000      -0.00876614      -0.00670071       0.19376210
Pd       3.21474025       2.64278185      10.96553598  T       0.00000000       0.00000000       0.00000000      -0.00514860       0.01421920       0.00130129
Pd       3.03500985       2.69806606       7.66479390  T       0.00000000       0.00000000       0.00000000      -0.00821710      -0.02304771      -0.01615474
Pd       3.05359271       2.70292306       1.50000000  F       0.00000000       0.00000000       0.00000000      -0.00033744       0.00049420      -0.90141721
Pd       4.58038906       5.40584612       3.02679635  F       0.00000000       0.00000000       0.00000000      -0.00037831       0.00243419       0.05289935
Pd       4.58038878       0.00000011       6.09434618  F       0.00000000       0.00000000       0.00000000      -0.03224616      -0.00518330       0.05552836
Pd       4.58038808       5.40584530       6.09434913  F       0.00000000       0.00000000       0.00000000      -0.02440725      -0.02242627       0.05085380
Pd       7.63398177       0.00000000       3.02679635  F       0.00000000       0.00000000       0.00000000       0.00007787       0.00093186       0.04651905
Pd       3.05359271       8.10876919       1.50000000  F       0.00000000       0.00000000       0.00000000       0.00016978      -0.00003346      -0.90421560
Pd       6.08643118       8.11858574       7.65666977  T       0.00000000       0.00000000       0.00000000       0.00627625       0.01302573      -0.01289991
Pd       7.63398372      10.81169054       6.09434173  F       0.00000000       0.00000000       0.00000000       0.01532023       0.01808453       0.05368785
Pd       6.10718498       8.10876457       4.56515665  F       0.00000000       0.00000000       0.00000000      -0.00809956      -0.00540911       0.14734174
Pd       1.52679863       5.40584339       6.09434623  F       0.00000000       0.00000000       0.00000000      -0.00185331      -0.01590566       0.04926986
Pd       7.63398177       5.40584612       3.02679635  F       0.00000000       0.00000000       0.00000000       0.00008197       0.00052449       0.05150329
Pd       6.10718542       8.10876919       1.50000000  F       0.00000000       0.00000000       0.00000000      -0.00003113      -0.00006134      -0.90308804
Pd       0.00221903       8.10208196       7.67087000  T       0.00000000       0.00000000       0.00000000      -0.00371154      -0.00008037      -0.02052536
Pd       5.90489045       2.71245612      10.93270944  T       0.00000000       0.00000000       0.00000000       0.00373368       0.02120448      -0.00098110
Pd       1.53481154       5.40692390       9.14926367  T       0.00000000       0.00000000       0.00000000      -0.03562736      -0.01353348       0.01541115
Pd       7.64313267      -0.00107220       9.06720492  T       0.00000000       0.00000000       0.00000000       0.00716582      -0.02602130       0.01204044
Pd       6.12806391       2.70094144       7.65057745  T       0.00000000       0.00000000       0.00000000      -0.01267976       0.01112233       0.00619350
Pd      11.80021537       8.08058790      10.78895354  T       0.00000000       0.00000000       0.00000000      -0.01308387       0.00363886       0.00644453
Pd       6.10718636       2.70292272       4.56515365  F       0.00000000       0.00000000       0.00000000       0.00814592       0.01353211       0.11905342
Pd       3.05114409       8.09976701       7.66245849  T       0.00000000       0.00000000       0.00000000       0.00344958      -0.00928954      -0.01073983
Pd       0.00000286       8.10876728       4.56515590  F       0.00000000       0.00000000       0.00000000       0.00676402       0.00433130       0.22539474
Pd       4.57331183       5.37535651       9.11380180  T       0.00000000       0.00000000       0.00000000       0.00701941      -0.02125751      -0.00686538
Pd       9.16077813       2.70292306       1.50000000  F       0.00000000       0.00000000       0.00000000      -0.00023562      -0.00019545      -0.90249712
Pd       3.48829590       8.07664284      10.77569274  T       0.00000000       0.00000000       0.00000000       0.01213462       0.00813881      -0.00144307
Pd       0.00000000       8.10876919       1.50000000  F       0.00000000       0.00000000       0.00000000      -0.00025421       0.00064418      -0.90379080
Pd       8.91701632       7.86241236      10.89393250  T       0.00000000       0.00000000       0.00000000       0.01856771      -0.01968822       0.00971313
Pd       1.52679635       0.00000000       3.02679635  F       0.00000000       0.00000000       0.00000000      -0.00129602      -0.00090048       0.05686672
Pd       1.52679635       5.40584612       3.02679635  F       0.00000000       0.00000000       0.00000000       0.00047502      -0.00002107       0.05390443
Pd      10.68757448       0.00000000       3.02679635  F       0.00000000       0.00000000       0.00000000       0.00133886      -0.00179068       0.05686703
Pd      10.71035396       5.37467502       9.16923957  T       0.00000000       0.00000000       0.00000000       0.01023946       0.01714624      -0.00005277
Pd       9.16077751       2.70292195       4.56515514  F       0.00000000       0.00000000       0.00000000       0.00508730       0.00343592       0.16986548
Pd      10.68757769      10.81169125       6.09434037  F       0.00000000       0.00000000       0.00000000       0.03595243       0.00687352       0.07510453
Pd       9.16077986       8.10876364       4.56515811  F       0.00000000       0.00000000       0.00000000       0.00990896      -0.00538237       0.19387066
Pd       1.52679695      10.81169175       6.09434358  F       0.00000000       0.00000000       0.00000000      -0.02533852      -0.03736493       0.08363658
Pd       9.19815314       8.12412961       7.66440116  T       0.00000000       0.00000000       0.00000000       0.00463010       0.00517297       0.04324505
Pd       9.16910083       2.70619936       7.66318936  T       0.00000000       0.00000000       0.00000000       0.00190870      -0.01855055       0.01817224
Pd      10.69332104       0.01343867       9.14193141  T       0.00000000       0.00000000       0.00000000       0.00308691       0.01921974       0.00295418
Pd       0.00000037       2.70292295       4.56515782  F       0.00000000       0.00000000       0.00000000      -0.00624974       0.00734788       0.19641120
Pd       1.53283129      10.78043150       9.13894987  T       0.00000000       0.00000000       0.00000000       0.01949034       0.00120532      -0.00898742
Pd       8.71843631       2.70893405      10.79530909  T       0.00000000       0.00000000       0.00000000      -0.00131006       0.01050761      -0.01377879
Pd       6.34203476       7.81467762      10.88846214  T       0.00000000       0.00000000       0.00000000      -0.01765779       0.02114185       0.01510251
Pd      12.22261890       2.70128204       7.66890529  T       0.00000000       0.00000000       0.00000000       0.00992095      -0.01496210       0.01323843
Pd      10.68757879       5.40584476       6.09434230  F       0.00000000       0.00000000       0.00000000      -0.00366949       0.01254873       0.04393038
Pd       9.16077813       8.10876919       1.50000000  F       0.00000000       0.00000000       0.00000000       0.00009946      -0.00017203      -0.90375422
Pd      10.68757448       5.40584612       3.02679635  F       0.00000000       0.00000000       0.00000000      -0.00133536       0.00192107       0.05659902
Pd      12.63621012       2.68393291      10.80514734  T       0.00000000       0.00000000       0.00000000       0.00118511      -0.00921131       0.01697831
Pd       4.59014434      10.79696599       9.06554105  T       0.00000000       0.00000000       0.00000000       0.01220347      -0.00255223       0.00378808
Pd       7.63398212       5.40584800       6.09434442  F       0.00000000       0.00000000       0.00000000       0.02762585       0.07379830       0.07415076
Pd       7.64972587       5.40946520       9.10369851  T       0.00000000       0.00000000       0.00000000      -0.01982645      -0.00389261       0.00518412
Pd       4.58038906       0.00000000       3.02679635  F       0.00000000       0.00000000       0.00000000      -0.00126511      -0.00335511       0.05027674
Pd       0.00000000       2.70292306       1.50000000  F       0.00000000       0.00000000       0.00000000       0.00033418      -0.00009263      -0.90252107
C        4.60478745       1.93740285      12.17326600  T       0.00000000       0.00000000       0.00000000       0.00083961       0.02355525      -0.01349416
O        4.58186023       1.28100484      13.16733915  T       0.00000000       0.00000000       0.00000000       0.01384160      -0.00478843       0.01089689
O        7.61200681       8.67526709      12.33009088  T       0.00000000       0.00000000       0.00000000       0.00212264      -0.02678321      -0.01452285
C        7.58075444      10.08831892      12.57610319  T       0.00000000       0.00000000       0.00000000       0.00984892      -0.00498742      -0.00556859
H        6.69853102      10.32429198      13.19514411  T       0.00000000       0.00000000       0.00000000       0.00174515       0.00273843       0.00598813
H        8.50190532      10.37877322      13.11526933  T       0.00000000       0.00000000       0.00000000      -0.00486724      -0.01634574       0.00298096
H        7.51880030      10.66790796      11.62738396  T       0.00000000       0.00000000       0.00000000       0.00340047      -0.01845962      -0.00183924
