111
Lattice="12.21437083684855 0.0 7e-16 1.7e-15 10.811692246786171 7e-16 0.0 0.0 29.250333490173453" Properties=species:S:1:pos:R:3:move_mask:L:1:momenta:R:3:forces:R:3 idx=1524 E_MACE=-572.8222758645082 d_min=2.0786230430204755 d_reactive=4.092470449820892 rank=3763 dE_rel_meV=2299.6139115749656 converged=F energy=-572.8222758645082 stress="0.0014971507064844248 -0.0004595099744826744 0.00012839664108158297 -0.0004595099744826744 -0.0005202478556728266 -0.00026275531646548884 0.00012839664108158297 -0.00026275531646548884 -0.003922046498953647" pbc="T T T"
O        6.09419860       1.32291892       9.12866523  T       0.00000000       0.00000000       0.00000000       0.05145275      -0.00014511       0.03455199
O        9.16077813       4.05438459       3.02679635  F       0.00000000       0.00000000       0.00000000      -0.00056084       0.47715783       0.29281035
O        6.09177703       6.74871474       9.17653809  T       0.00000000       0.00000000       0.00000000       0.03835159      -0.00230412       0.01103221
O        6.10728523       9.46613957       9.18917105  T       0.00000000       0.00000000       0.00000000      -0.01080719       0.04238975      -0.09439764
O        9.14087804       4.06879067       9.19300590  T       0.00000000       0.00000000       0.00000000       0.06905708      -0.08063883       0.09139044
O        3.06332642       1.33562878       9.15929663  T       0.00000000       0.00000000       0.00000000      -0.01287180      -0.05645779      -0.03846302
O        0.00000000       6.75730765       3.02679635  F       0.00000000       0.00000000       0.00000000       0.00124738      -0.47489797       0.28913254
O        3.03261422       4.03587326       9.20871367  T       0.00000000       0.00000000       0.00000000      -0.11073328       0.16392153       0.08324671
O       -0.00208567       9.45500793       6.11115824  T       0.00000000       0.00000000       0.00000000       0.01540896      -0.02480678      -0.03278687
O        0.00000210       6.76116167       6.10263319  F       0.00000000       0.00000000       0.00000000       0.00528139       0.00076039      -0.00563232
O       12.18105674       9.47055427       9.16750253  T       0.00000000       0.00000000       0.00000000       0.02736534       0.00107958      -0.03678579
O       12.19626227       1.35186510       9.15130417  T       0.00000000       0.00000000       0.00000000      -0.17804172      -0.08077299      -0.12940574
O       12.23370371       3.99718460       9.30328945  T       0.00000000       0.00000000       0.00000000       0.06160602       0.10610373      -0.02728575
O       -0.00089479       1.36245964       6.10966280  T       0.00000000       0.00000000       0.00000000      -0.01948241       0.00166707      -0.05016290
O        0.00000111       4.05052849       6.10263306  F       0.00000000       0.00000000       0.00000000      -0.00149072       0.03609980       0.03597692
O        3.05359271       4.05438459       3.02679635  F       0.00000000       0.00000000       0.00000000       0.00291851       0.47768158       0.29305201
O        0.00000000       9.46023072       3.02679635  F       0.00000000       0.00000000       0.00000000      -0.00046702       0.47595851       0.29927314
O        3.04640689       4.04011683       6.11805080  T       0.00000000       0.00000000       0.00000000       0.04989484       0.07497638      -0.07384516
O        3.05359271       1.35146153       3.02679635  F       0.00000000       0.00000000       0.00000000       0.00575827      -0.47447673       0.28698009
O        3.04947774       1.35470279       6.10095901  T       0.00000000       0.00000000       0.00000000       0.02117883       0.03525079       0.06097967
O        0.00000000       4.05438459       3.02679635  F       0.00000000       0.00000000       0.00000000       0.00154933       0.47387430       0.28720454
O        0.00000000       1.35146153       3.02679635  F       0.00000000       0.00000000       0.00000000       0.00050336      -0.47956950       0.29530113
O        9.16077813       1.35146153       3.02679635  F       0.00000000       0.00000000       0.00000000      -0.00059576      -0.47593253       0.29388347
O        9.16077827       4.05052947       6.10263005  F       0.00000000       0.00000000       0.00000000       0.02175276       0.00704765      -0.00513419
O       -0.00428003       6.73145445       9.19826395  T       0.00000000       0.00000000       0.00000000      -0.10784426      -0.04780527      -0.04492871
O        9.12263683       1.36944010       9.18655726  T       0.00000000       0.00000000       0.00000000       0.11047791      -0.15530268       0.08435391
O        9.16077740       1.35531546       6.10263307  F       0.00000000       0.00000000       0.00000000       0.02741679       0.05193387       0.03604660
O        6.12446874       4.05639750       9.18354888  T       0.00000000       0.00000000       0.00000000       0.04560734       0.05881919      -0.24650217
O        6.10730427       1.36179708       6.10032208  T       0.00000000       0.00000000       0.00000000      -0.01480461      -0.10299560      -0.04488569
O        6.10708976       4.05322696       6.10570324  T       0.00000000       0.00000000       0.00000000       0.00880525      -0.04255936      -0.04576833
O        6.10718542       1.35146153       3.02679635  F       0.00000000       0.00000000       0.00000000      -0.00063696      -0.48261976       0.29403995
O        6.10718542       4.05438459       3.02679635  F       0.00000000       0.00000000       0.00000000      -0.00023860       0.47535184       0.29250850
O        3.03914972       9.46542626       9.14975977  T       0.00000000       0.00000000       0.00000000       0.02326437       0.10293382      -0.05941752
O        3.05349157       6.76412772       6.11846552  T       0.00000000       0.00000000       0.00000000      -0.00192916      -0.10272845      -0.18667345
O        3.05371362       9.45340996       6.10446877  T       0.00000000       0.00000000       0.00000000      -0.02110043      -0.02760287       0.02007388
O        3.05359271       6.75730765       3.02679635  F       0.00000000       0.00000000       0.00000000      -0.00091873      -0.47483594       0.29793575
O        3.02526786       6.76007410       9.21873541  T       0.00000000       0.00000000       0.00000000       0.03933546      -0.08808319      -0.03222260
O        6.10718542       9.46023072       3.02679635  F       0.00000000       0.00000000       0.00000000       0.00044207       0.47119568       0.29311264
O        6.10718542       6.75730765       3.02679635  F       0.00000000       0.00000000       0.00000000      -0.00128662      -0.48079011       0.29707632
O        6.10947115       9.46168559       6.10614881  T       0.00000000       0.00000000       0.00000000      -0.02282029      -0.06148135      -0.03236353
O        6.10689717       6.77136245       6.11212605  T       0.00000000       0.00000000       0.00000000      -0.00638682      -0.09012440      -0.09353197
O        9.17094404       6.73995073       9.19082309  T       0.00000000       0.00000000       0.00000000       0.04775702      -0.01813316      -0.02569372
O        9.15311381       9.46899732       9.19142690  T       0.00000000       0.00000000       0.00000000      -0.00147385       0.02042575      -0.01280236
O        9.16123710       6.76227834       6.10608475  T       0.00000000       0.00000000       0.00000000       0.02049893      -0.00734259      -0.01889287
O        9.15825308       9.44972464       6.11209916  T       0.00000000       0.00000000       0.00000000       0.04502644       0.02030269      -0.05244075
O        9.16077813       6.75730765       3.02679635  F       0.00000000       0.00000000       0.00000000       0.00252588      -0.47515183       0.28853810
O        3.05359271       9.46023072       3.02679635  F       0.00000000       0.00000000       0.00000000       0.00001228       0.47415687       0.29425950
O        9.16077813       9.46023072       3.02679635  F       0.00000000       0.00000000       0.00000000      -0.00012199       0.47652815       0.29427934
Pd       3.05359414       2.70292461       4.56516084  F       0.00000000       0.00000000       0.00000000      -0.02302974       0.02533161       0.26392787
Pd       6.10718542       2.70292306       1.50000000  F       0.00000000       0.00000000       0.00000000      -0.00003558       0.00128615      -0.90362807
Pd       3.05359287       8.10876720       4.56515841  F       0.00000000       0.00000000       0.00000000       0.00229967      -0.03989051       0.21096570
Pd       3.33140127       3.03444670      10.98394275  T       0.00000000       0.00000000       0.00000000      -0.00294619      -0.03606080      -0.02017467
Pd       3.03623664       2.68903276       7.68186357  T       0.00000000       0.00000000       0.00000000      -0.01239426      -0.08629740      -0.08118073
Pd       3.05359271       2.70292306       1.50000000  F       0.00000000       0.00000000       0.00000000      -0.00059396       0.00180446      -0.90625767
Pd       4.58038906       5.40584612       3.02679635  F       0.00000000       0.00000000       0.00000000      -0.00112485       0.00198744       0.05550410
Pd       4.58038878       0.00000011       6.09434618  F       0.00000000       0.00000000       0.00000000      -0.00568725       0.01247656       0.05598127
Pd       4.58038808       5.40584530       6.09434913  F       0.00000000       0.00000000       0.00000000      -0.06016114      -0.01840188       0.13502931
Pd       7.63398177       0.00000000       3.02679635  F       0.00000000       0.00000000       0.00000000       0.00081413      -0.00147593       0.05138838
Pd       3.05359271       8.10876919       1.50000000  F       0.00000000       0.00000000       0.00000000      -0.00015570      -0.00156730      -0.90914039
Pd       6.10098307       8.11459342       7.66081526  T       0.00000000       0.00000000       0.00000000       0.00426699      -0.00759991       0.00686672
Pd       7.63398372      10.81169054       6.09434173  F       0.00000000       0.00000000       0.00000000       0.00999573       0.02124685       0.09049117
Pd       6.10718498       8.10876457       4.56515665  F       0.00000000       0.00000000       0.00000000      -0.00017097       0.03324772       0.21185217
Pd       1.52679863       5.40584339       6.09434623  F       0.00000000       0.00000000       0.00000000       0.01949709      -0.04586842       0.09927785
Pd       7.63398177       5.40584612       3.02679635  F       0.00000000       0.00000000       0.00000000      -0.00193537       0.00208965       0.05151194
Pd       6.10718542       8.10876919       1.50000000  F       0.00000000       0.00000000       0.00000000       0.00014741       0.00046102      -0.90646903
Pd      -0.00787183       8.09810065       7.66041708  T       0.00000000       0.00000000       0.00000000      -0.02316958       0.03396664       0.03981540
Pd       5.92434406       3.10649110      10.98994292  T       0.00000000       0.00000000       0.00000000      -0.19923308       0.16080220       0.04708222
Pd       1.50847289       5.39863540       9.18745876  T       0.00000000       0.00000000       0.00000000       0.03252446      -0.24627499       0.03720656
Pd       7.62215282       0.00280806       9.09450910  T       0.00000000       0.00000000       0.00000000      -0.05819344      -0.04679141       0.08212816
Pd       6.11200935       2.68506878       7.65894343  T       0.00000000       0.00000000       0.00000000       0.03797299       0.06473507       0.13680509
Pd      12.07911023       8.08151570      10.81789795  T       0.00000000       0.00000000       0.00000000      -0.03966841      -0.01389859       0.10220892
Pd       6.10718636       2.70292272       4.56515365  F       0.00000000       0.00000000       0.00000000      -0.00080929       0.07503700       0.16466286
Pd       3.04472251       8.09331254       7.65775988  T       0.00000000       0.00000000       0.00000000       0.00634758       0.18723953      -0.00756566
Pd       0.00000286       8.10876728       4.56515590  F       0.00000000       0.00000000       0.00000000       0.00065343       0.01677260       0.19357854
Pd       4.56584120       5.41952155       9.13215522  T       0.00000000       0.00000000       0.00000000      -0.05717161      -0.09454213       0.13003074
Pd       9.16077813       2.70292306       1.50000000  F       0.00000000       0.00000000       0.00000000      -0.00043917      -0.00028269      -0.90074786
Pd       2.79195500       8.08257679      10.79208110  T       0.00000000       0.00000000       0.00000000      -0.00434298       0.02368899       0.13471283
Pd       0.00000000       8.10876919       1.50000000  F       0.00000000       0.00000000       0.00000000       0.00029431      -0.00062692      -0.90575316
Pd       9.15105162       8.10926564      10.84331242  T       0.00000000       0.00000000       0.00000000       0.00674096      -0.01316774      -0.01384746
Pd       1.52679635       0.00000000       3.02679635  F       0.00000000       0.00000000       0.00000000      -0.00269024      -0.00046084       0.03939372
Pd       1.52679635       5.40584612       3.02679635  F       0.00000000       0.00000000       0.00000000       0.00373100       0.00057724       0.05605079
Pd      10.68757448       0.00000000       3.02679635  F       0.00000000       0.00000000       0.00000000       0.00190069      -0.00134839       0.06179581
Pd      10.69767227       5.36914433       9.18820980  T       0.00000000       0.00000000       0.00000000      -0.02555803      -0.00143289       0.01042284
Pd       9.16077751       2.70292195       4.56515514  F       0.00000000       0.00000000       0.00000000       0.00700827      -0.00274547       0.16991942
Pd      10.68757769      10.81169125       6.09434037  F       0.00000000       0.00000000       0.00000000      -0.03267706       0.00780124       0.07096713
Pd       9.16077986       8.10876364       4.56515811  F       0.00000000       0.00000000       0.00000000      -0.00612872      -0.00433665       0.21895006
Pd       1.52679695      10.81169175       6.09434358  F       0.00000000       0.00000000       0.00000000      -0.03522065      -0.00544025       0.07880209
Pd       9.17116428       8.10025991       7.66701360  T       0.00000000       0.00000000       0.00000000      -0.01158833       0.06785238       0.05412946
Pd       9.16600251       2.71465907       7.66082803  T       0.00000000       0.00000000       0.00000000      -0.03690534      -0.04717091      -0.11312991
Pd      10.66469247       0.01750681       9.15840964  T       0.00000000       0.00000000       0.00000000      -0.03375964       0.04507704      -0.05887062
Pd       0.00000037       2.70292295       4.56515782  F       0.00000000       0.00000000       0.00000000      -0.00662100       0.00567449       0.19873138
Pd       1.51463231      10.81677842       9.09594898  T       0.00000000       0.00000000       0.00000000       0.14901549      -0.17443977       0.12584089
Pd       8.59148195       2.72687194      10.74768726  T       0.00000000       0.00000000       0.00000000       0.13269179      -0.00684501      -0.00285119
Pd       6.24377759       8.10686531      10.81064218  T       0.00000000       0.00000000       0.00000000       0.01476409      -0.03723346       0.01021938
Pd      12.20053539       2.71949073       7.66926908  T       0.00000000       0.00000000       0.00000000       0.03204660       0.02449636       0.14983450
Pd      10.68757879       5.40584476       6.09434230  F       0.00000000       0.00000000       0.00000000       0.00407715      -0.01291164       0.04167372
Pd       9.16077813       8.10876919       1.50000000  F       0.00000000       0.00000000       0.00000000      -0.00034178       0.00006081      -0.90478909
Pd      10.68757448       5.40584612       3.02679635  F       0.00000000       0.00000000       0.00000000      -0.00122427       0.00108660       0.05454150
Pd      12.81850167       2.51129054      10.81460502  T       0.00000000       0.00000000       0.00000000       0.26867400      -0.19679629       0.18795120
Pd       4.57749594      10.81079976       9.07938750  T       0.00000000       0.00000000       0.00000000      -0.07412191      -0.07035378       0.11633706
Pd       7.63398212       5.40584800       6.09434442  F       0.00000000       0.00000000       0.00000000      -0.03311382       0.05129311       0.08000170
Pd       7.63197913       5.41746828       9.12183988  T       0.00000000       0.00000000       0.00000000       0.05289619       0.09208038       0.07281789
Pd       4.58038906       0.00000000       3.02679635  F       0.00000000       0.00000000       0.00000000      -0.00038007      -0.00207979       0.05612701
Pd       0.00000000       2.70292306       1.50000000  F       0.00000000       0.00000000       0.00000000       0.00078002       0.00106037      -0.90337465
C        1.48600122      10.98404424      11.53895017  T       0.00000000       0.00000000       0.00000000       0.15470898       0.07780107      -0.00577886
O        2.19592265      10.20155276      12.06697791  T       0.00000000       0.00000000       0.00000000      -0.36076839       0.48140671      -0.27653072
O        4.67358486       2.53243029      12.54773924  T       0.00000000       0.00000000       0.00000000       0.03472364       0.04897456      -0.02119159
C        4.92652084       1.36290752      13.34672505  T       0.00000000       0.00000000       0.00000000       0.09750804       0.03598834      -0.25762098
H        5.08898033       1.69728179      14.39304492  T       0.00000000       0.00000000       0.00000000      -0.06363203      -0.17106371      -0.09626049
H        4.08315607       0.65812014      13.27688814  T       0.00000000       0.00000000       0.00000000      -0.05788479       0.03898187       0.16453203
H        5.83328539       0.84354175      12.97556067  T       0.00000000       0.00000000       0.00000000      -0.03208517       0.02696160       0.11807876
