111
Lattice="12.21437083684855 0.0 7e-16 1.7e-15 10.811692246786171 7e-16 0.0 0.0 29.250333490173453" Properties=species:S:1:pos:R:3:move_mask:L:1:momenta:R:3:forces:R:3 idx=3538 E_MACE=-574.3337199902383 d_min=1.8058997197775981 d_reactive=4.775531456226909 rank=1881 dE_rel_meV=788.169785844957 converged=T energy=-574.3337199902383 stress="0.00218711665479295 4.921414048977888e-05 -4.7183655235229564e-05 4.921414048977888e-05 -0.0004541290517551602 1.4089728365725076e-06 -4.7183655235229564e-05 1.4089728365725076e-06 -0.0039183108211180324" pbc="T T T"
O        6.09119023       1.33543043       9.18667195  T       0.00000000       0.00000000       0.00000000       0.00928972       0.00177716      -0.00486958
O        9.16077813       4.05438459       3.02679635  F       0.00000000       0.00000000       0.00000000       0.00019769       0.47800326       0.29075011
O        6.09588998       6.73738603       9.19336946  T       0.00000000       0.00000000       0.00000000       0.00568825       0.00765186      -0.01354994
O        6.09892716       9.46336915       9.20020342  T       0.00000000       0.00000000       0.00000000      -0.00854552      -0.00682574       0.00127926
O        9.14470565       4.05666500       9.20073125  T       0.00000000       0.00000000       0.00000000      -0.00120195      -0.00057801      -0.01704667
O        3.03378826       1.32766092       9.16688699  T       0.00000000       0.00000000       0.00000000       0.00987568      -0.00195966      -0.00077633
O        0.00000000       6.75730765       3.02679635  F       0.00000000       0.00000000       0.00000000       0.00207438      -0.47759045       0.29011964
O        3.04116032       4.04383088       9.22083238  T       0.00000000       0.00000000       0.00000000       0.00360272       0.00414915       0.00239572
O       -0.00296772       9.45431728       6.10708325  T       0.00000000       0.00000000       0.00000000       0.00819131      -0.00940081       0.00105777
O        0.00000210       6.76116167       6.10263319  F       0.00000000       0.00000000       0.00000000      -0.01842191       0.02294818       0.01043997
O       12.19092404       9.46235443       9.18600336  T       0.00000000       0.00000000       0.00000000       0.01486798       0.00804309      -0.00751101
O       12.20269472       1.33308868       9.13592570  T       0.00000000       0.00000000       0.00000000      -0.00343311      -0.00891903       0.00158526
O       12.20681754       4.03086393       9.18611832  T       0.00000000       0.00000000       0.00000000       0.00972142       0.00963520      -0.01260049
O        0.00034216       1.35273481       6.09470697  T       0.00000000       0.00000000       0.00000000      -0.00388998      -0.00055900       0.01747595
O        0.00000111       4.05052849       6.10263306  F       0.00000000       0.00000000       0.00000000       0.00134177      -0.01662998       0.00929614
O        3.05359271       4.05438459       3.02679635  F       0.00000000       0.00000000       0.00000000      -0.00120935       0.47710372       0.29009114
O        0.00000000       9.46023072       3.02679635  F       0.00000000       0.00000000       0.00000000      -0.00001690       0.47821628       0.29565451
O        3.05333449       4.04787825       6.10849583  T       0.00000000       0.00000000       0.00000000       0.00383089      -0.00683266       0.00033258
O        3.05359271       1.35146153       3.02679635  F       0.00000000       0.00000000       0.00000000      -0.00056732      -0.47766667       0.29160811
O        3.05450004       1.35889808       6.10531601  T       0.00000000       0.00000000       0.00000000      -0.01003625       0.00057380      -0.00342347
O        0.00000000       4.05438459       3.02679635  F       0.00000000       0.00000000       0.00000000      -0.00027775       0.48253612       0.29522475
O        0.00000000       1.35146153       3.02679635  F       0.00000000       0.00000000       0.00000000      -0.00009604      -0.48231705       0.29170420
O        9.16077813       1.35146153       3.02679635  F       0.00000000       0.00000000       0.00000000       0.00015189      -0.47834443       0.29166676
O        9.16077827       4.05052947       6.10263005  F       0.00000000       0.00000000       0.00000000      -0.02182201      -0.04415088       0.04166616
O       -0.01904469       6.73283531       9.18261130  T       0.00000000       0.00000000       0.00000000       0.00534163      -0.00521764      -0.00039887
O        9.15008933       1.34476254       9.19625754  T       0.00000000       0.00000000       0.00000000      -0.00827038       0.00592468       0.00841759
O        9.16077740       1.35531546       6.10263307  F       0.00000000       0.00000000       0.00000000      -0.02168685       0.04862011       0.02918402
O        6.09549110       4.05455571       9.20725382  T       0.00000000       0.00000000       0.00000000      -0.00285970      -0.00550103       0.00310307
O        6.10641590       1.35822693       6.10658881  T       0.00000000       0.00000000       0.00000000       0.00299935      -0.00116619      -0.00532716
O        6.10651469       4.04811530       6.10584596  T       0.00000000       0.00000000       0.00000000       0.00285349       0.00052981       0.00796892
O        6.10718542       1.35146153       3.02679635  F       0.00000000       0.00000000       0.00000000       0.00016614      -0.47783716       0.29116127
O        6.10718542       4.05438459       3.02679635  F       0.00000000       0.00000000       0.00000000       0.00032036       0.47724920       0.28990555
O        3.03543342       9.44613921       9.19783401  T       0.00000000       0.00000000       0.00000000       0.00712498       0.01712258      -0.01127498
O        3.05326833       6.76437979       6.10601782  T       0.00000000       0.00000000       0.00000000       0.00573209       0.00783449       0.00246878
O        3.05156265       9.45614835       6.10726059  T       0.00000000       0.00000000       0.00000000       0.01168824      -0.00222947      -0.01772867
O        3.05359271       6.75730765       3.02679635  F       0.00000000       0.00000000       0.00000000       0.00105320      -0.47642524       0.29318851
O        3.04853817       6.75203032       9.19105950  T       0.00000000       0.00000000       0.00000000      -0.01235113      -0.01635201      -0.01328525
O        6.10718542       9.46023072       3.02679635  F       0.00000000       0.00000000       0.00000000      -0.00113680       0.47676481       0.29167154
O        6.10718542       6.75730765       3.02679635  F       0.00000000       0.00000000       0.00000000      -0.00136155      -0.47663549       0.28894478
O        6.10849142       9.45223725       6.11029584  T       0.00000000       0.00000000       0.00000000      -0.00237082       0.00412192      -0.00481479
O        6.10849177       6.76379734       6.10705718  T       0.00000000       0.00000000       0.00000000      -0.01020702       0.00167000       0.00223474
O        9.15290885       6.74171028       9.20142963  T       0.00000000       0.00000000       0.00000000       0.01014391       0.00699619       0.00213535
O        9.15044688       9.46882656       9.21072136  T       0.00000000       0.00000000       0.00000000       0.00107178      -0.02252942      -0.00267770
O        9.16162030       6.76592936       6.11006370  T       0.00000000       0.00000000       0.00000000      -0.01234575      -0.00295487      -0.00816307
O        9.16099560       9.45278609       6.11025388  T       0.00000000       0.00000000       0.00000000      -0.00959831      -0.00128338      -0.00192245
O        9.16077813       6.75730765       3.02679635  F       0.00000000       0.00000000       0.00000000      -0.00039641      -0.47582428       0.28986601
O        3.05359271       9.46023072       3.02679635  F       0.00000000       0.00000000       0.00000000      -0.00006581       0.47533832       0.29456941
O        9.16077813       9.46023072       3.02679635  F       0.00000000       0.00000000       0.00000000      -0.00103572       0.47517263       0.28933264
Pd       3.05359414       2.70292461       4.56516084  F       0.00000000       0.00000000       0.00000000       0.00406601       0.01660696       0.20570651
Pd       6.10718542       2.70292306       1.50000000  F       0.00000000       0.00000000       0.00000000      -0.00019262       0.00009201      -0.90293597
Pd       3.05359287       8.10876720       4.56515841  F       0.00000000       0.00000000       0.00000000      -0.00319569       0.00788624       0.17832717
Pd       2.95107062       2.62857938      10.85218121  T       0.00000000       0.00000000       0.00000000       0.00892981      -0.01383867       0.00296617
Pd       3.04824654       2.70188767       7.66723763  T       0.00000000       0.00000000       0.00000000       0.01035098       0.01815847       0.00491435
Pd       3.05359271       2.70292306       1.50000000  F       0.00000000       0.00000000       0.00000000       0.00015254       0.00041837      -0.90342335
Pd       4.58038906       5.40584612       3.02679635  F       0.00000000       0.00000000       0.00000000       0.00025262       0.00027894       0.05519706
Pd       4.58038878       0.00000011       6.09434618  F       0.00000000       0.00000000       0.00000000       0.00628693      -0.00540753       0.08973995
Pd       4.58038808       5.40584530       6.09434913  F       0.00000000       0.00000000       0.00000000      -0.00393730       0.00317680       0.08594612
Pd       7.63398177       0.00000000       3.02679635  F       0.00000000       0.00000000       0.00000000       0.00052874      -0.00134659       0.05427239
Pd       3.05359271       8.10876919       1.50000000  F       0.00000000       0.00000000       0.00000000      -0.00000520       0.00007282      -0.90344926
Pd       6.10960407       8.10510206       7.66827772  T       0.00000000       0.00000000       0.00000000       0.00060167       0.00503067      -0.00485870
Pd       7.63398372      10.81169054       6.09434173  F       0.00000000       0.00000000       0.00000000      -0.00280830      -0.02071847       0.08226557
Pd       6.10718498       8.10876457       4.56515665  F       0.00000000       0.00000000       0.00000000       0.00548900       0.00334414       0.21552688
Pd       1.52679863       5.40584339       6.09434623  F       0.00000000       0.00000000       0.00000000       0.01434596      -0.01524022       0.07573228
Pd       7.63398177       5.40584612       3.02679635  F       0.00000000       0.00000000       0.00000000       0.00073371       0.00159942       0.05386012
Pd       6.10718542       8.10876919       1.50000000  F       0.00000000       0.00000000       0.00000000      -0.00000851       0.00010549      -0.90375998
Pd      -0.01824426       8.10408513       7.66121016  T       0.00000000       0.00000000       0.00000000       0.00080522       0.00319587       0.00110516
Pd       6.08438878       2.67290556      10.82802419  T       0.00000000       0.00000000       0.00000000       0.00089874       0.00863237      -0.00452861
Pd       1.51844041       5.39395048       9.15099680  T       0.00000000       0.00000000       0.00000000      -0.00800331      -0.01470697       0.00432231
Pd       7.62323447      -0.00277946       9.16400574  T       0.00000000       0.00000000       0.00000000      -0.00225514       0.00207202      -0.01176476
Pd       6.10123345       2.70274817       7.66556988  T       0.00000000       0.00000000       0.00000000       0.00836917       0.00202883      -0.00314366
Pd      12.27603385       8.05551591      10.82412079  T       0.00000000       0.00000000       0.00000000      -0.01928205       0.00969579       0.00104917
Pd       6.10718636       2.70292272       4.56515365  F       0.00000000       0.00000000       0.00000000      -0.00401904       0.00317845       0.18561237
Pd       3.04785689       8.11062173       7.66030059  T       0.00000000       0.00000000       0.00000000       0.01307104      -0.01433398       0.00296689
Pd       0.00000286       8.10876728       4.56515590  F       0.00000000       0.00000000       0.00000000      -0.00486736       0.00187408       0.17470079
Pd       4.56966473       5.38944860       9.16347922  T       0.00000000       0.00000000       0.00000000      -0.00269738       0.00875542       0.00289399
Pd       9.16077813       2.70292306       1.50000000  F       0.00000000       0.00000000       0.00000000      -0.00005311      -0.00012103      -0.90100567
Pd       2.96150794       7.99598570      10.82203212  T       0.00000000       0.00000000       0.00000000       0.01233113       0.03082828       0.02919642
Pd       0.00000000       8.10876919       1.50000000  F       0.00000000       0.00000000       0.00000000       0.00002988       0.00035917      -0.90289635
Pd       9.18418594       8.09476040      10.83353077  T       0.00000000       0.00000000       0.00000000       0.00470716      -0.00443118      -0.01509883
Pd       1.52679635       0.00000000       3.02679635  F       0.00000000       0.00000000       0.00000000       0.00097739      -0.00151754       0.05177591
Pd       1.52679635       5.40584612       3.02679635  F       0.00000000       0.00000000       0.00000000       0.00037344       0.00067422       0.05235462
Pd      10.68757448       0.00000000       3.02679635  F       0.00000000       0.00000000       0.00000000      -0.00091023      -0.00272625       0.05198495
Pd      10.67268722       5.39528776       9.15185994  T       0.00000000       0.00000000       0.00000000       0.00572576       0.00255203       0.00697772
Pd       9.16077751       2.70292195       4.56515514  F       0.00000000       0.00000000       0.00000000      -0.00117465       0.00428485       0.16607295
Pd      10.68757769      10.81169125       6.09434037  F       0.00000000       0.00000000       0.00000000      -0.02077396      -0.03627043       0.06930618
Pd       9.16077986       8.10876364       4.56515811  F       0.00000000       0.00000000       0.00000000       0.00256216       0.00030047       0.23479315
Pd       1.52679695      10.81169175       6.09434358  F       0.00000000       0.00000000       0.00000000      -0.00095523      -0.01548300       0.06649658
Pd       9.15757156       8.10994484       7.67258926  T       0.00000000       0.00000000       0.00000000      -0.01178361      -0.01121083      -0.01150534
Pd       9.14624965       2.70145576       7.66337131  T       0.00000000       0.00000000       0.00000000       0.00639498      -0.00866699      -0.00470619
Pd      10.67597292       0.00125786       9.13113847  T       0.00000000       0.00000000       0.00000000       0.00010834      -0.00648524      -0.01397269
Pd       0.00000037       2.70292295       4.56515782  F       0.00000000       0.00000000       0.00000000       0.00364734       0.03052527       0.12931852
Pd       1.50332223      10.80276119       9.10824051  T       0.00000000       0.00000000       0.00000000      -0.00308023      -0.01468770       0.00878792
Pd       9.20849922       2.71497628      10.84433303  T       0.00000000       0.00000000       0.00000000       0.00982414      -0.00966880      -0.00000351
Pd       6.00416341       8.08186591      10.83055702  T       0.00000000       0.00000000       0.00000000      -0.00360758      -0.00527840       0.00176238
Pd      12.21183807       2.68636467       7.65249850  T       0.00000000       0.00000000       0.00000000      -0.01235854       0.01381753       0.01833977
Pd      10.68757879       5.40584476       6.09434230  F       0.00000000       0.00000000       0.00000000      -0.00457111       0.00133646       0.06746656
Pd       9.16077813       8.10876919       1.50000000  F       0.00000000       0.00000000       0.00000000      -0.00001510       0.00016661      -0.90472242
Pd      10.68757448       5.40584612       3.02679635  F       0.00000000       0.00000000       0.00000000      -0.00009080       0.00255198       0.05095063
Pd      12.16852437       2.88430274      10.94562480  T       0.00000000       0.00000000       0.00000000      -0.00573100      -0.00023854       0.02748788
Pd       4.56549994      10.80006501       9.13232516  T       0.00000000       0.00000000       0.00000000       0.01864732      -0.00626907      -0.00885581
Pd       7.63398212       5.40584800       6.09434442  F       0.00000000       0.00000000       0.00000000       0.01351746       0.01464844       0.07276903
Pd       7.62202721       5.40026959       9.16775624  T       0.00000000       0.00000000       0.00000000       0.00209989      -0.00801097       0.00296787
Pd       4.58038906       0.00000000       3.02679635  F       0.00000000       0.00000000       0.00000000       0.00077138      -0.00071241       0.05271945
Pd       0.00000000       2.70292306       1.50000000  F       0.00000000       0.00000000       0.00000000       0.00012631       0.00069591      -0.89901967
C       12.11776364       2.19571389      12.61431967  T       0.00000000       0.00000000       0.00000000       0.00352229       0.00822575      -0.04212546
O       12.08261778       1.74039988      13.68769629  T       0.00000000       0.00000000       0.00000000       0.01206193      -0.02166217       0.01730330
O        2.66240035       9.11540396      12.40008353  T       0.00000000       0.00000000       0.00000000      -0.00118250       0.01702611       0.01861861
C        3.25080135      10.37960815      12.57037482  T       0.00000000       0.00000000       0.00000000      -0.00625439      -0.01319560       0.00249736
H        3.00878631      10.73401768      13.59211811  T       0.00000000       0.00000000       0.00000000      -0.00613276       0.01004216      -0.01361624
H        4.35893855      10.36515859      12.45187829  T       0.00000000       0.00000000       0.00000000      -0.02157641       0.01251022      -0.00833933
H        2.85431522      11.14576104      11.84051056  T       0.00000000       0.00000000       0.00000000       0.01508812       0.01322793       0.00554899
