111
Lattice="12.21437083684855 0.0 7e-16 1.7e-15 10.811692246786171 7e-16 0.0 0.0 29.250333490173453" Properties=species:S:1:pos:R:3:move_mask:L:1:momenta:R:3:forces:R:3 idx=2988 E_MACE=-574.7531620098537 d_min=1.9141495443902803 d_reactive=5.064813656057639 rank=3 dE_rel_meV=368.72776622954007 converged=T energy=-574.7531620098537 stress="0.0008077431495404257 -0.0001255995128371892 0.00017492335236346808 -0.0001255995128371892 -0.001155439924354561 3.460901402853346e-05 0.00017492335236346808 3.460901402853346e-05 -0.0039650531020700664" pbc="T T T"
O        6.12194269       1.36550900       9.21553378  T       0.00000000       0.00000000       0.00000000       0.00382731       0.02714463       0.02442413
O        9.16077813       4.05438459       3.02679635  F       0.00000000       0.00000000       0.00000000       0.00077222       0.47688461       0.29233652
O        6.14400454       6.78207696       9.22757322  T       0.00000000       0.00000000       0.00000000      -0.00043504       0.00796604       0.00567699
O        6.13525224       9.48850595       9.19489091  T       0.00000000       0.00000000       0.00000000       0.01490114      -0.01596658       0.00617547
O        9.19195819       4.07802464       9.19766548  T       0.00000000       0.00000000       0.00000000       0.00108648      -0.03128428       0.01911738
O        3.08221613       1.34379437       9.15243475  T       0.00000000       0.00000000       0.00000000       0.01371609      -0.00576297       0.01137846
O        0.00000000       6.75730765       3.02679635  F       0.00000000       0.00000000       0.00000000      -0.00000461      -0.47974327       0.29408394
O        3.13891340       4.07732495       9.15143642  T       0.00000000       0.00000000       0.00000000      -0.01489006      -0.00611282       0.00897951
O        0.00014975       9.45571471       6.10358902  T       0.00000000       0.00000000       0.00000000       0.00530066      -0.00197041      -0.01647507
O        0.00000210       6.76116167       6.10263319  F       0.00000000       0.00000000       0.00000000       0.01125936       0.00746092      -0.03417702
O       12.25773842       9.48071350       9.13713250  T       0.00000000       0.00000000       0.00000000      -0.01090379      -0.01309335      -0.01930296
O       12.23621841       1.33425733       9.14541673  T       0.00000000       0.00000000       0.00000000      -0.00097217       0.02895459       0.00309156
O       12.19804970       4.06847142       9.16070748  T       0.00000000       0.00000000       0.00000000       0.01451375      -0.02438935       0.00100739
O        0.00068742       1.35309644       6.09894243  T       0.00000000       0.00000000       0.00000000      -0.00910558       0.00853929       0.00614688
O        0.00000111       4.05052849       6.10263306  F       0.00000000       0.00000000       0.00000000      -0.03457294      -0.03072840      -0.00757179
O        3.05359271       4.05438459       3.02679635  F       0.00000000       0.00000000       0.00000000      -0.00088184       0.47983745       0.29545206
O        0.00000000       9.46023072       3.02679635  F       0.00000000       0.00000000       0.00000000      -0.00042852       0.47911485       0.29661734
O        3.06069079       4.04810630       6.10252501  T       0.00000000       0.00000000       0.00000000      -0.00542645      -0.00020896      -0.00889985
O        3.05359271       1.35146153       3.02679635  F       0.00000000       0.00000000       0.00000000      -0.00468722      -0.47847284       0.29456510
O        3.05579814       1.35363344       6.09936486  T       0.00000000       0.00000000       0.00000000       0.00175056       0.00955081       0.01837316
O        0.00000000       4.05438459       3.02679635  F       0.00000000       0.00000000       0.00000000      -0.00038735       0.47936877       0.29738631
O        0.00000000       1.35146153       3.02679635  F       0.00000000       0.00000000       0.00000000       0.00007405      -0.47893558       0.29580221
O        9.16077813       1.35146153       3.02679635  F       0.00000000       0.00000000       0.00000000       0.00070290      -0.47676530       0.29246097
O        9.16077827       4.05052947       6.10263005  F       0.00000000       0.00000000       0.00000000      -0.00787289      -0.03245835       0.02956806
O        0.05539294       6.73703070       9.14653644  T       0.00000000       0.00000000       0.00000000      -0.00397229       0.02576705       0.00202700
O        9.20155658       1.35793047       9.20178991  T       0.00000000       0.00000000       0.00000000       0.00898085      -0.02075976       0.00917334
O        9.16077740       1.35531546       6.10263307  F       0.00000000       0.00000000       0.00000000      -0.00633182       0.05075042       0.06045515
O        6.13727686       4.07523337       9.20360967  T       0.00000000       0.00000000       0.00000000      -0.02100631       0.00075365       0.01307395
O        6.10957726       1.36011249       6.11125484  T       0.00000000       0.00000000       0.00000000       0.00176739      -0.00622042      -0.01415187
O        6.11000266       4.04768055       6.10554094  T       0.00000000       0.00000000       0.00000000      -0.00070729       0.01058458       0.00281058
O        6.10718542       1.35146153       3.02679635  F       0.00000000       0.00000000       0.00000000      -0.00159343      -0.47554191       0.29267193
O        6.10718542       4.05438459       3.02679635  F       0.00000000       0.00000000       0.00000000      -0.00174319       0.47413816       0.28857381
O        3.07582994       9.48755110       9.14818680  T       0.00000000       0.00000000       0.00000000      -0.01226831      -0.00468858       0.01809672
O        3.05501312       6.76147211       6.10234997  T       0.00000000       0.00000000       0.00000000      -0.00277999       0.00113918      -0.01569553
O        3.05631588       9.45776054       6.09894528  T       0.00000000       0.00000000       0.00000000      -0.01074216      -0.00768445      -0.00442808
O        3.05359271       6.75730765       3.02679635  F       0.00000000       0.00000000       0.00000000      -0.00134380      -0.47969144       0.29714562
O        3.07403138       6.75176826       9.16917206  T       0.00000000       0.00000000       0.00000000      -0.01092223      -0.00294050       0.00146515
O        6.10718542       9.46023072       3.02679635  F       0.00000000       0.00000000       0.00000000      -0.00178954       0.47431446       0.28838663
O        6.10718542       6.75730765       3.02679635  F       0.00000000       0.00000000       0.00000000      -0.00154181      -0.47540826       0.29225665
O        6.10944465       9.45403039       6.10631818  T       0.00000000       0.00000000       0.00000000      -0.00045222       0.00050993      -0.00340654
O        6.10976772       6.76724027       6.11139917  T       0.00000000       0.00000000       0.00000000       0.00201925      -0.00585305       0.00475255
O        9.16616233       6.78039394       9.20256390  T       0.00000000       0.00000000       0.00000000      -0.00211793       0.00184431       0.01053055
O        9.17660020       9.47157839       9.18615229  T       0.00000000       0.00000000       0.00000000       0.00963073       0.00699558      -0.01198967
O        9.15924164       6.76574370       6.10998943  T       0.00000000       0.00000000       0.00000000       0.00395098       0.01129951      -0.00482085
O        9.15968038       9.45604681       6.10567882  T       0.00000000       0.00000000       0.00000000       0.00670561      -0.02132028       0.00185209
O        9.16077813       6.75730765       3.02679635  F       0.00000000       0.00000000       0.00000000       0.00153242      -0.47812560       0.29092014
O        3.05359271       9.46023072       3.02679635  F       0.00000000       0.00000000       0.00000000      -0.00021426       0.47795496       0.29650395
O        9.16077813       9.46023072       3.02679635  F       0.00000000       0.00000000       0.00000000       0.00180822       0.47674671       0.28825066
Pd       3.05359414       2.70292461       4.56516084  F       0.00000000       0.00000000       0.00000000       0.01706946       0.01021680       0.14705451
Pd       6.10718542       2.70292306       1.50000000  F       0.00000000       0.00000000       0.00000000      -0.00023917      -0.00043506      -0.90384226
Pd       3.05359287       8.10876720       4.56515841  F       0.00000000       0.00000000       0.00000000       0.01077241      -0.00886290       0.13170087
Pd       2.86582141       3.06144661      10.91387101  T       0.00000000       0.00000000       0.00000000      -0.00520081       0.00374077       0.00319715
Pd       3.10114099       2.69041012       7.65853935  T       0.00000000       0.00000000       0.00000000       0.00215790      -0.00608072      -0.03466070
Pd       3.05359271       2.70292306       1.50000000  F       0.00000000       0.00000000       0.00000000       0.00026725       0.00001558      -0.90215569
Pd       4.58038906       5.40584612       3.02679635  F       0.00000000       0.00000000       0.00000000      -0.00039493       0.00029528       0.05432899
Pd       4.58038878       0.00000011       6.09434618  F       0.00000000       0.00000000       0.00000000       0.07469213       0.01037208       0.06506814
Pd       4.58038808       5.40584530       6.09434913  F       0.00000000       0.00000000       0.00000000       0.08525695       0.02130255       0.06365099
Pd       7.63398177       0.00000000       3.02679635  F       0.00000000       0.00000000       0.00000000      -0.00122279      -0.00087581       0.05995629
Pd       3.05359271       8.10876919       1.50000000  F       0.00000000       0.00000000       0.00000000       0.00038237       0.00011323      -0.90260468
Pd       6.13901095       8.11871412       7.67069707  T       0.00000000       0.00000000       0.00000000      -0.01135829       0.00349764       0.01217568
Pd       7.63398372      10.81169054       6.09434173  F       0.00000000       0.00000000       0.00000000      -0.00059122       0.01706143       0.06346188
Pd       6.10718498       8.10876457       4.56515665  F       0.00000000       0.00000000       0.00000000       0.01088423      -0.00975171       0.23028958
Pd       1.52679863       5.40584339       6.09434623  F       0.00000000       0.00000000       0.00000000       0.03493392      -0.03331446       0.07467687
Pd       7.63398177       5.40584612       3.02679635  F       0.00000000       0.00000000       0.00000000      -0.00026266       0.00196942       0.06049243
Pd       6.10718542       8.10876919       1.50000000  F       0.00000000       0.00000000       0.00000000      -0.00010633      -0.00034417      -0.90424424
Pd       0.02335548       8.10698772       7.66145445  T       0.00000000       0.00000000       0.00000000      -0.00395411       0.00868053      -0.00373891
Pd       5.67958325       2.75045371      10.78468467  T       0.00000000       0.00000000       0.00000000       0.02911151      -0.01951974      -0.02559738
Pd       1.55966148       5.40201157       9.08352973  T       0.00000000       0.00000000       0.00000000      -0.00472390       0.01940333      -0.00253388
Pd       7.66365750       0.02198925       9.16860477  T       0.00000000       0.00000000       0.00000000      -0.00319167      -0.01044750      -0.00054114
Pd       6.13208102       2.70949167       7.66983086  T       0.00000000       0.00000000       0.00000000      -0.00239344       0.00030937       0.01892253
Pd      12.43607215       8.12735690      10.96346443  T       0.00000000       0.00000000       0.00000000      -0.02199661      -0.00481971       0.01262514
Pd       6.10718636       2.70292272       4.56515365  F       0.00000000       0.00000000       0.00000000       0.01398269      -0.00752970       0.22559617
Pd       3.06881562       8.11148599       7.65275411  T       0.00000000       0.00000000       0.00000000       0.02043399       0.00006764       0.01009400
Pd       0.00000286       8.10876728       4.56515590  F       0.00000000       0.00000000       0.00000000      -0.00379582      -0.00528664       0.19226167
Pd       4.63232093       5.43934955       9.13891229  T       0.00000000       0.00000000       0.00000000       0.00376412      -0.02136591       0.00198973
Pd       9.16077813       2.70292306       1.50000000  F       0.00000000       0.00000000       0.00000000       0.00014400      -0.00014035      -0.90184285
Pd       2.99347018       8.14470198      10.83879143  T       0.00000000       0.00000000       0.00000000      -0.00897967      -0.01390939       0.00135955
Pd       0.00000000       8.10876919       1.50000000  F       0.00000000       0.00000000       0.00000000      -0.00033348       0.00038145      -0.90368886
Pd       9.76545594       8.07272652      10.85345227  T       0.00000000       0.00000000       0.00000000      -0.02418497       0.01287283      -0.01468923
Pd       1.52679635       0.00000000       3.02679635  F       0.00000000       0.00000000       0.00000000      -0.00079747      -0.00207072       0.04608333
Pd       1.52679635       5.40584612       3.02679635  F       0.00000000       0.00000000       0.00000000      -0.00078523       0.00099083       0.04964872
Pd      10.68757448       0.00000000       3.02679635  F       0.00000000       0.00000000       0.00000000      -0.00090942       0.00007951       0.05221576
Pd      10.69945018       5.43512964       9.11662572  T       0.00000000       0.00000000       0.00000000       0.00444467       0.00126795      -0.00978912
Pd       9.16077751       2.70292195       4.56515514  F       0.00000000       0.00000000       0.00000000      -0.00642720       0.00170771       0.17664033
Pd      10.68757769      10.81169125       6.09434037  F       0.00000000       0.00000000       0.00000000      -0.01066787      -0.03044443       0.06751656
Pd       9.16077986       8.10876364       4.56515811  F       0.00000000       0.00000000       0.00000000      -0.01015158      -0.00757772       0.26106613
Pd       1.52679695      10.81169175       6.09434358  F       0.00000000       0.00000000       0.00000000       0.00359374      -0.03364864       0.04673361
Pd       9.14986550       8.12029738       7.67585353  T       0.00000000       0.00000000       0.00000000      -0.00166700       0.00324104      -0.00341294
Pd       9.16407248       2.70772321       7.66463737  T       0.00000000       0.00000000       0.00000000       0.00537337       0.02792382      -0.01326111
Pd      10.71615658       0.00187658       9.08510585  T       0.00000000       0.00000000       0.00000000      -0.02669693      -0.01579663      -0.00993543
Pd       0.00000037       2.70292295       4.56515782  F       0.00000000       0.00000000       0.00000000      -0.00074691       0.01964997       0.14772713
Pd       1.55138811      10.82918762       9.05858325  T       0.00000000       0.00000000       0.00000000       0.02109318      -0.01278215       0.00899562
Pd       9.69899250       2.73151325      10.75416858  T       0.00000000       0.00000000       0.00000000      -0.02992569       0.00844820       0.00609320
Pd       5.78328895       8.16547060      10.80686325  T       0.00000000       0.00000000       0.00000000      -0.01582594      -0.03472826      -0.01247234
Pd      12.20146453       2.69015976       7.65625892  T       0.00000000       0.00000000       0.00000000      -0.01021337       0.00155472       0.01738447
Pd      10.68757879       5.40584476       6.09434230  F       0.00000000       0.00000000       0.00000000      -0.03020147       0.03674320       0.06626907
Pd       9.16077813       8.10876919       1.50000000  F       0.00000000       0.00000000       0.00000000       0.00018007      -0.00034431      -0.90322089
Pd      10.68757448       5.40584612       3.02679635  F       0.00000000       0.00000000       0.00000000      -0.00015757      -0.00035995       0.05547311
Pd      12.50301090       2.99675230      10.90303022  T       0.00000000       0.00000000       0.00000000      -0.01156886       0.02878573      -0.00499617
Pd       4.60664709      10.82761512       9.11702017  T       0.00000000       0.00000000       0.00000000      -0.02874417       0.02104920      -0.01480656
Pd       7.63398212       5.40584800       6.09434442  F       0.00000000       0.00000000       0.00000000       0.00865729       0.05630467       0.06232604
Pd       7.65979220       5.41945900       9.17342951  T       0.00000000       0.00000000       0.00000000       0.02050257      -0.00666785       0.00745357
Pd       4.58038906       0.00000000       3.02679635  F       0.00000000       0.00000000       0.00000000       0.00131868       0.00092197       0.05268022
Pd       0.00000000       2.70292306       1.50000000  F       0.00000000       0.00000000       0.00000000       0.00016971       0.00015130      -0.90282613
C       10.96659151      -1.94065566      12.11200019  T       0.00000000       0.00000000       0.00000000       0.01333774       0.02716732       0.02824352
O       11.00426683      -1.25709284      13.08641137  T       0.00000000       0.00000000       0.00000000      -0.00613854      -0.03987820      -0.02325447
O        1.61399105      13.04227086      12.36381827  T       0.00000000       0.00000000       0.00000000      -0.02148999       0.00638010       0.00548897
C        1.67760802      11.62755367      12.60187256  T       0.00000000       0.00000000       0.00000000      -0.00097318      -0.01899136       0.00331939
H        0.82311289      11.33213030      13.23386224  T       0.00000000       0.00000000       0.00000000      -0.00293347       0.01135748       0.00131480
H        1.63676930      11.05495416      11.64962155  T       0.00000000       0.00000000       0.00000000      -0.00403252      -0.00845909      -0.00618618
H        2.62334918      11.38890643      13.12378139  T       0.00000000       0.00000000       0.00000000      -0.00274463       0.02691466       0.00205472
