111
Lattice="12.21437083684855 0.0 7e-16 1.7e-15 10.811692246786171 7e-16 0.0 0.0 29.250333490173453" Properties=species:S:1:pos:R:3:move_mask:L:1:momenta:R:3:forces:R:3 idx=1525 E_MACE=-572.8861977127042 d_min=2.088755487513936 d_reactive=3.9995938707224754 rank=3762 dE_rel_meV=2235.6920633790196 converged=F energy=-572.8861977127042 stress="0.0015543061275617043 0.00021801237565385553 0.00015159303873919403 0.00021801237565385553 -0.0009472718081600219 -9.536881608955794e-05 0.00015159303873919403 -9.536881608955794e-05 -0.004380835786637348" pbc="T T T"
O        6.11506589       1.32805481       9.16170703  T       0.00000000       0.00000000       0.00000000      -0.00713700       0.00208498      -0.00268704
O        9.16077813       4.05438459       3.02679635  F       0.00000000       0.00000000       0.00000000       0.00073117       0.47860746       0.28901678
O        6.17338967       6.72524464       9.15568799  T       0.00000000       0.00000000       0.00000000       0.00614712      -0.01509580      -0.01252710
O        6.12825996       9.45895325       9.15025088  T       0.00000000       0.00000000       0.00000000      -0.00252717       0.06232262      -0.06482728
O        9.19317553       4.04108447       9.21494468  T       0.00000000       0.00000000       0.00000000       0.01092600       0.00208721       0.00035179
O        3.06918099       1.33128568       9.15615360  T       0.00000000       0.00000000       0.00000000      -0.00823622       0.01664810       0.01048479
O        0.00000000       6.75730765       3.02679635  F       0.00000000       0.00000000       0.00000000       0.00130088      -0.47430354       0.28868986
O        3.06147063       4.05316026       9.20700873  T       0.00000000       0.00000000       0.00000000      -0.00099813       0.03659320      -0.01656604
O       -0.00065666       9.45194503       6.10890428  T       0.00000000       0.00000000       0.00000000      -0.00090458      -0.00473551       0.00075038
O        0.00000210       6.76116167       6.10263319  F       0.00000000       0.00000000       0.00000000      -0.00744632      -0.00234834       0.05019611
O       12.21511278       9.45677103       9.16898066  T       0.00000000       0.00000000       0.00000000       0.00983253       0.00769031      -0.00183316
O       12.21180593       1.34000897       9.18025434  T       0.00000000       0.00000000       0.00000000      -0.03678226      -0.00524896      -0.08622636
O       12.21258250       4.05026943       9.21530484  T       0.00000000       0.00000000       0.00000000       0.02285203      -0.00769135       0.02427520
O       -0.00015569       1.35707776       6.10545073  T       0.00000000       0.00000000       0.00000000       0.00115013       0.00579844       0.00481717
O        0.00000111       4.05052849       6.10263306  F       0.00000000       0.00000000       0.00000000      -0.01319273      -0.03939767       0.04985523
O        3.05359271       4.05438459       3.02679635  F       0.00000000       0.00000000       0.00000000       0.00016033       0.47835990       0.29260000
O        0.00000000       9.46023072       3.02679635  F       0.00000000       0.00000000       0.00000000       0.00064362       0.47727359       0.29639181
O        3.05324596       4.04843059       6.10684775  T       0.00000000       0.00000000       0.00000000       0.00197188       0.00549272       0.00255234
O        3.05359271       1.35146153       3.02679635  F       0.00000000       0.00000000       0.00000000      -0.00054206      -0.47666234       0.29597580
O        3.05242143       1.35661274       6.10405279  T       0.00000000       0.00000000       0.00000000       0.00429568       0.00526548       0.00562986
O        0.00000000       4.05438459       3.02679635  F       0.00000000       0.00000000       0.00000000       0.00036322       0.47798380       0.28740217
O        0.00000000       1.35146153       3.02679635  F       0.00000000       0.00000000       0.00000000       0.00036746      -0.47862033       0.29400242
O        9.16077813       1.35146153       3.02679635  F       0.00000000       0.00000000       0.00000000       0.00001699      -0.47824362       0.29069867
O        9.16077827       4.05052947       6.10263005  F       0.00000000       0.00000000       0.00000000       0.03026762      -0.05293481       0.06640707
O        0.02305789       6.76076568       9.25275542  T       0.00000000       0.00000000       0.00000000      -0.01611705      -0.00623300      -0.02152997
O        9.17031435       1.33895065       9.19443944  T       0.00000000       0.00000000       0.00000000      -0.00028261      -0.01342371      -0.00585142
O        9.16077740       1.35531546       6.10263307  F       0.00000000       0.00000000       0.00000000       0.01058804       0.04347144       0.04024539
O        6.11361369       4.04730084       9.19091413  T       0.00000000       0.00000000       0.00000000       0.01670602       0.01209051       0.00624427
O        6.10806264       1.35489294       6.10020484  T       0.00000000       0.00000000       0.00000000      -0.00425929       0.00603107       0.01012530
O        6.10686989       4.04791988       6.10569231  T       0.00000000       0.00000000       0.00000000       0.00111236       0.00392207      -0.00175672
O        6.10718542       1.35146153       3.02679635  F       0.00000000       0.00000000       0.00000000       0.00083945      -0.47751700       0.29418553
O        6.10718542       4.05438459       3.02679635  F       0.00000000       0.00000000       0.00000000      -0.00014989       0.48081586       0.29429748
O        3.05997489       9.45488317       9.16207144  T       0.00000000       0.00000000       0.00000000       0.00075152       0.01874851       0.00670235
O        3.05011238       6.76210606       6.10326671  T       0.00000000       0.00000000       0.00000000       0.00156785       0.00351793       0.01595917
O        3.05091203       9.45419034       6.10720189  T       0.00000000       0.00000000       0.00000000       0.00201281      -0.00397351      -0.00825994
O        3.05359271       6.75730765       3.02679635  F       0.00000000       0.00000000       0.00000000       0.00204467      -0.47524503       0.29251707
O        3.03134164       6.74297008       9.19848759  T       0.00000000       0.00000000       0.00000000       0.00379072      -0.00876862       0.00642820
O        6.10718542       9.46023072       3.02679635  F       0.00000000       0.00000000       0.00000000      -0.00269260       0.47811287       0.29835903
O        6.10718542       6.75730765       3.02679635  F       0.00000000       0.00000000       0.00000000      -0.00041060      -0.47863183       0.29500910
O        6.10816121       9.45747527       6.10039788  T       0.00000000       0.00000000       0.00000000       0.00443786      -0.00348379       0.00455088
O        6.11120953       6.76064790       6.09942226  T       0.00000000       0.00000000       0.00000000       0.00282864      -0.00227335      -0.00357969
O        9.17458617       6.73630760       9.20385651  T       0.00000000       0.00000000       0.00000000       0.00825104       0.00250636       0.01398479
O        9.16649892       9.45514264       9.20429728  T       0.00000000       0.00000000       0.00000000      -0.00718226      -0.00652907       0.01329847
O        9.16244958       6.76286626       6.10643252  T       0.00000000       0.00000000       0.00000000       0.00106975       0.00061464      -0.00138087
O        9.16254147       9.45198094       6.11067651  T       0.00000000       0.00000000       0.00000000      -0.00112586       0.00004136      -0.00496643
O        9.16077813       6.75730765       3.02679635  F       0.00000000       0.00000000       0.00000000      -0.00097271      -0.47489063       0.28944470
O        3.05359271       9.46023072       3.02679635  F       0.00000000       0.00000000       0.00000000       0.00259743       0.47657465       0.29971168
O        9.16077813       9.46023072       3.02679635  F       0.00000000       0.00000000       0.00000000      -0.00087705       0.47618180       0.29337974
Pd       3.05359414       2.70292461       4.56516084  F       0.00000000       0.00000000       0.00000000      -0.00148207       0.01300758       0.17912686
Pd       6.10718542       2.70292306       1.50000000  F       0.00000000       0.00000000       0.00000000      -0.00005098       0.00046038      -0.90246146
Pd       3.05359287       8.10876720       4.56515841  F       0.00000000       0.00000000       0.00000000      -0.01556768      -0.00264776       0.16916073
Pd       2.90958951       2.71291136      10.83782479  T       0.00000000       0.00000000       0.00000000       0.06770572       0.00644929      -0.01406332
Pd       3.05663558       2.70201164       7.66223704  T       0.00000000       0.00000000       0.00000000       0.01541933       0.00814516       0.00520128
Pd       3.05359271       2.70292306       1.50000000  F       0.00000000       0.00000000       0.00000000      -0.00023475       0.00099857      -0.90434264
Pd       4.58038906       5.40584612       3.02679635  F       0.00000000       0.00000000       0.00000000      -0.00051440      -0.00188129       0.05184278
Pd       4.58038878       0.00000011       6.09434618  F       0.00000000       0.00000000       0.00000000      -0.02574825      -0.00310198       0.05503327
Pd       4.58038808       5.40584530       6.09434913  F       0.00000000       0.00000000       0.00000000      -0.01085282      -0.00851101       0.07757894
Pd       7.63398177       0.00000000       3.02679635  F       0.00000000       0.00000000       0.00000000       0.00157705      -0.00134370       0.05059608
Pd       3.05359271       8.10876919       1.50000000  F       0.00000000       0.00000000       0.00000000      -0.00012207      -0.00061968      -0.90422661
Pd       6.14283378       8.10844954       7.64719076  T       0.00000000       0.00000000       0.00000000       0.00767708       0.01661448      -0.01909974
Pd       7.63398372      10.81169054       6.09434173  F       0.00000000       0.00000000       0.00000000       0.03954475      -0.02085850       0.05232878
Pd       6.10718498       8.10876457       4.56515665  F       0.00000000       0.00000000       0.00000000       0.00826963      -0.00378162       0.10292894
Pd       1.52679863       5.40584339       6.09434623  F       0.00000000       0.00000000       0.00000000      -0.00658460      -0.01780336       0.04550055
Pd       7.63398177       5.40584612       3.02679635  F       0.00000000       0.00000000       0.00000000      -0.00048870       0.00011502       0.04988629
Pd       6.10718542       8.10876919       1.50000000  F       0.00000000       0.00000000       0.00000000      -0.00005141      -0.00016073      -0.90130983
Pd      -0.00386180       8.09751021       7.66311004  T       0.00000000       0.00000000       0.00000000      -0.00226549       0.00130279       0.00510873
Pd       6.10266880       2.68257031      10.82082760  T       0.00000000       0.00000000       0.00000000       0.00689585       0.00781971       0.00090765
Pd       1.52487029       5.38978168       9.18591104  T       0.00000000       0.00000000       0.00000000       0.00712354       0.00677776      -0.00082705
Pd       7.64429863      -0.01039099       9.12470889  T       0.00000000       0.00000000       0.00000000       0.00316289       0.01295061      -0.00634147
Pd       6.11297368       2.69760913       7.65674502  T       0.00000000       0.00000000       0.00000000       0.01032348       0.00915906      -0.00123638
Pd      12.55425442       8.05749251      10.81010247  T       0.00000000       0.00000000       0.00000000       0.01336843      -0.00858788      -0.01145644
Pd       6.10718636       2.70292272       4.56515365  F       0.00000000       0.00000000       0.00000000       0.00055889       0.01233841       0.14149256
Pd       3.02908668       8.10369898       7.66135880  T       0.00000000       0.00000000       0.00000000       0.00377730       0.01405358       0.00713436
Pd       0.00000286       8.10876728       4.56515590  F       0.00000000       0.00000000       0.00000000      -0.00762100      -0.00299902       0.16493619
Pd       4.59203442       5.39124205       9.15362204  T       0.00000000       0.00000000       0.00000000       0.00288049      -0.00942762      -0.02385574
Pd       9.16077813       2.70292306       1.50000000  F       0.00000000       0.00000000       0.00000000      -0.00019722       0.00023843      -0.90061214
Pd       3.36547609       7.93076679      10.84740626  T       0.00000000       0.00000000       0.00000000      -0.01093867      -0.02535882      -0.00317381
Pd       0.00000000       8.10876919       1.50000000  F       0.00000000       0.00000000       0.00000000       0.00009838      -0.00044777      -0.90361503
Pd       8.99205303       8.07464758      10.82051067  T       0.00000000       0.00000000       0.00000000      -0.04707487       0.00456066      -0.01896553
Pd       1.52679635       0.00000000       3.02679635  F       0.00000000       0.00000000       0.00000000      -0.00180249      -0.00107715       0.04288031
Pd       1.52679635       5.40584612       3.02679635  F       0.00000000       0.00000000       0.00000000       0.00067500      -0.00012063       0.05284523
Pd      10.68757448       0.00000000       3.02679635  F       0.00000000       0.00000000       0.00000000       0.00075728      -0.00079700       0.05468710
Pd      10.70443167       5.40560274       9.20664066  T       0.00000000       0.00000000       0.00000000       0.00807831       0.01320063      -0.02601090
Pd       9.16077751       2.70292195       4.56515514  F       0.00000000       0.00000000       0.00000000      -0.00171022       0.00851609       0.16394501
Pd      10.68757769      10.81169125       6.09434037  F       0.00000000       0.00000000       0.00000000      -0.00291885      -0.03470377       0.05592720
Pd       9.16077986       8.10876364       4.56515811  F       0.00000000       0.00000000       0.00000000       0.01164825      -0.00029500       0.21239982
Pd       1.52679695      10.81169175       6.09434358  F       0.00000000       0.00000000       0.00000000      -0.01923558      -0.02113061       0.07330928
Pd       9.17340324       8.10122971       7.66761715  T       0.00000000       0.00000000       0.00000000       0.00103793       0.00369548       0.00098331
Pd       9.17769475       2.69944704       7.66631418  T       0.00000000       0.00000000       0.00000000      -0.00447989      -0.00418911      -0.00967138
Pd      10.69091690      -0.01188430       9.16205934  T       0.00000000       0.00000000       0.00000000       0.00248148       0.00070484      -0.02089629
Pd       0.00000037       2.70292295       4.56515782  F       0.00000000       0.00000000       0.00000000      -0.00097977       0.00659557       0.17507326
Pd       1.53289808      10.80149807       9.12775637  T       0.00000000       0.00000000       0.00000000       0.01573732      -0.00434673      -0.00469703
Pd       9.16702954       2.67545469      10.84604155  T       0.00000000       0.00000000       0.00000000      -0.00231171       0.00605783      -0.00742483
Pd       5.94668063       7.87357970      10.82999743  T       0.00000000       0.00000000       0.00000000       0.01170159      -0.10428052       0.08070053
Pd      12.20593854       2.70315281       7.66515563  T       0.00000000       0.00000000       0.00000000       0.00281607       0.01517838       0.03311563
Pd      10.68757879       5.40584476       6.09434230  F       0.00000000       0.00000000       0.00000000       0.00346580      -0.00606726       0.02869202
Pd       9.16077813       8.10876919       1.50000000  F       0.00000000       0.00000000       0.00000000       0.00007770       0.00014247      -0.90375368
Pd      10.68757448       5.40584612       3.02679635  F       0.00000000       0.00000000       0.00000000      -0.00089757       0.00009550       0.05349493
Pd      12.30637116       2.68929097      10.85188613  T       0.00000000       0.00000000       0.00000000       0.05179120      -0.16825907       0.09168336
Pd       4.59050169      10.79803994       9.06289400  T       0.00000000       0.00000000       0.00000000      -0.00829655       0.01303004       0.01158244
Pd       7.63398212       5.40584800       6.09434442  F       0.00000000       0.00000000       0.00000000       0.02844989      -0.02649331       0.04230899
Pd       7.66635679       5.37017969       9.15201962  T       0.00000000       0.00000000       0.00000000       0.01767058       0.00381370       0.00914568
Pd       4.58038906       0.00000000       3.02679635  F       0.00000000       0.00000000       0.00000000      -0.00131713       0.00107417       0.04230336
Pd       0.00000000       2.70292306       1.50000000  F       0.00000000       0.00000000       0.00000000       0.00042322       0.00052650      -0.90225682
C        1.33194261      10.92239707      11.68185461  T       0.00000000       0.00000000       0.00000000      -0.12760435       0.15394478      -0.06022962
O        0.79558383       9.97441333      12.11665941  T       0.00000000       0.00000000       0.00000000       0.00818188       0.06582878       0.01293777
O        4.72902598       8.87580597      12.19958099  T       0.00000000       0.00000000       0.00000000      -0.02082474       0.06517945       0.05601733
C        4.89840730      10.29565590      12.27751306  T       0.00000000       0.00000000       0.00000000      -0.01619761       0.02315263       0.03892477
H        4.66902903      10.62308940      13.30738231  T       0.00000000       0.00000000       0.00000000      -0.01636414      -0.02417178       0.04886978
H        5.94115139      10.57809905      12.02460127  T       0.00000000       0.00000000       0.00000000      -0.04672504      -0.00682469       0.07238373
H        4.22578328      10.82712928      11.56942717  T       0.00000000       0.00000000       0.00000000       0.01029592      -0.05802600       0.04500431
