111
Lattice="12.21437083684855 0.0 7e-16 1.7e-15 10.811692246786171 7e-16 0.0 0.0 29.250333490173453" Properties=species:S:1:pos:R:3:move_mask:L:1:momenta:R:3:forces:R:3 idx=17 E_MACE=-574.7527856314526 d_min=1.9597624791253407 d_reactive=5.120018372560069 rank=4 dE_rel_meV=369.10414463056895 converged=T energy=-574.7527856314526 stress="0.001177737536288275 2.9195627920111527e-05 7.452644052956156e-05 2.9195627920111527e-05 -0.0009887173501376438 -4.375332978228274e-05 7.452644052956156e-05 -4.375332978228274e-05 -0.003918433651580169" pbc="T T T"
O        6.14508018       1.33398354       9.21251714  T       0.00000000       0.00000000       0.00000000      -0.01776969       0.00518441      -0.00053291
O        9.16077813       4.05438459       3.02679635  F       0.00000000       0.00000000       0.00000000       0.00053917       0.47907591       0.29120526
O        6.11968733       6.73888229       9.21105104  T       0.00000000       0.00000000       0.00000000      -0.00221945       0.01025307      -0.00377059
O        6.10473846       9.44948699       9.21864162  T       0.00000000       0.00000000       0.00000000      -0.00467155      -0.00812302      -0.00636445
O        9.15165524       4.04749292       9.17387254  T       0.00000000       0.00000000       0.00000000       0.00351741      -0.01755859       0.00958269
O        3.05629717       1.34017577       9.19525779  T       0.00000000       0.00000000       0.00000000      -0.00445593       0.01334646      -0.02695260
O        0.00000000       6.75730765       3.02679635  F       0.00000000       0.00000000       0.00000000       0.00022498      -0.47845638       0.29524737
O        3.06549753       4.04723500       9.20482849  T       0.00000000       0.00000000       0.00000000      -0.01278952       0.00647657       0.01057149
O        0.00005710       9.45629196       6.10186793  T       0.00000000       0.00000000       0.00000000       0.00323967       0.00909285      -0.00194322
O        0.00000210       6.76116167       6.10263319  F       0.00000000       0.00000000       0.00000000      -0.03020995       0.01688784      -0.01430567
O       12.22909273       9.46889624       9.14909288  T       0.00000000       0.00000000       0.00000000      -0.00194807      -0.00542811      -0.01574069
O       12.22879022       1.32336220       9.12464799  T       0.00000000       0.00000000       0.00000000       0.00895103       0.00048133       0.00776927
O       12.25432706       4.06306166       9.14390610  T       0.00000000       0.00000000       0.00000000      -0.00430866      -0.00254610      -0.00349126
O        0.00013332       1.35440717       6.09822805  T       0.00000000       0.00000000       0.00000000       0.00351872      -0.01741435      -0.00859338
O        0.00000111       4.05052849       6.10263306  F       0.00000000       0.00000000       0.00000000       0.02720419      -0.00034616      -0.04501138
O        3.05359271       4.05438459       3.02679635  F       0.00000000       0.00000000       0.00000000      -0.00110255       0.47769305       0.29278111
O        0.00000000       9.46023072       3.02679635  F       0.00000000       0.00000000       0.00000000       0.00042384       0.47892141       0.29674802
O        3.05603972       4.04609190       6.10727661  T       0.00000000       0.00000000       0.00000000       0.00070562       0.00359972       0.01315055
O        3.05359271       1.35146153       3.02679635  F       0.00000000       0.00000000       0.00000000      -0.00139074      -0.47503314       0.29350389
O        3.05551507       1.35608604       6.10543628  T       0.00000000       0.00000000       0.00000000       0.00306157       0.01082447      -0.00248137
O        0.00000000       4.05438459       3.02679635  F       0.00000000       0.00000000       0.00000000      -0.00041716       0.48139707       0.29736973
O        0.00000000       1.35146153       3.02679635  F       0.00000000       0.00000000       0.00000000      -0.00068360      -0.47960250       0.29615487
O        9.16077813       1.35146153       3.02679635  F       0.00000000       0.00000000       0.00000000       0.00049918      -0.47954588       0.29210713
O        9.16077827       4.05052947       6.10263005  F       0.00000000       0.00000000       0.00000000      -0.01904740      -0.05149254       0.02618660
O       -0.02467531       6.73022851       9.15695230  T       0.00000000       0.00000000       0.00000000      -0.00175392       0.01512239      -0.00130548
O        9.16484023       1.31923374       9.14931434  T       0.00000000       0.00000000       0.00000000       0.00832888       0.00231983      -0.00863431
O        9.16077740       1.35531546       6.10263307  F       0.00000000       0.00000000       0.00000000      -0.00879195       0.01679040      -0.01300773
O        6.14575722       4.02964108       9.23946858  T       0.00000000       0.00000000       0.00000000       0.00161550       0.01438495      -0.00730660
O        6.10863451       1.35937199       6.10991409  T       0.00000000       0.00000000       0.00000000      -0.00701884      -0.00400258      -0.01129264
O        6.10780541       4.04405671       6.11272375  T       0.00000000       0.00000000       0.00000000      -0.00032034      -0.00328402       0.01318865
O        6.10718542       1.35146153       3.02679635  F       0.00000000       0.00000000       0.00000000       0.00006406      -0.47386553       0.28723758
O        6.10718542       4.05438459       3.02679635  F       0.00000000       0.00000000       0.00000000      -0.00052183       0.47479466       0.28896088
O        3.07326185       9.47092704       9.16940585  T       0.00000000       0.00000000       0.00000000       0.00441101      -0.00994479      -0.00494921
O        3.05884871       6.76558543       6.10652325  T       0.00000000       0.00000000       0.00000000       0.00491876      -0.00531540      -0.02347759
O        3.05552982       9.45764521       6.10257416  T       0.00000000       0.00000000       0.00000000       0.00155622      -0.00325647      -0.00819375
O        3.05359271       6.75730765       3.02679635  F       0.00000000       0.00000000       0.00000000      -0.00079056      -0.47851021       0.29434127
O        3.12028943       6.74120979       9.16752537  T       0.00000000       0.00000000       0.00000000      -0.00288036      -0.00390716       0.00828419
O        6.10718542       9.46023072       3.02679635  F       0.00000000       0.00000000       0.00000000      -0.00143868       0.47541331       0.29157217
O        6.10718542       6.75730765       3.02679635  F       0.00000000       0.00000000       0.00000000      -0.00083381      -0.47397796       0.28729847
O        6.10734634       9.45102412       6.11202114  T       0.00000000       0.00000000       0.00000000       0.00482580       0.00194849      -0.00707922
O        6.10840745       6.76354786       6.10662391  T       0.00000000       0.00000000       0.00000000      -0.00472275       0.00701921       0.01270445
O        9.18661774       6.73357034       9.18887638  T       0.00000000       0.00000000       0.00000000      -0.01893029       0.00107448       0.00043500
O        9.18935937       9.44921681       9.18962573  T       0.00000000       0.00000000       0.00000000      -0.00975189      -0.01086612       0.00851845
O        9.16029236       6.76075262       6.10147797  T       0.00000000       0.00000000       0.00000000      -0.00086756      -0.00070453      -0.00330869
O        9.16020208       9.45290197       6.10667469  T       0.00000000       0.00000000       0.00000000      -0.00422667       0.00808261      -0.00544792
O        9.16077813       6.75730765       3.02679635  F       0.00000000       0.00000000       0.00000000       0.00107826      -0.47624198       0.29238987
O        3.05359271       9.46023072       3.02679635  F       0.00000000       0.00000000       0.00000000      -0.00337077       0.47616029       0.29237113
O        9.16077813       9.46023072       3.02679635  F       0.00000000       0.00000000       0.00000000       0.00090031       0.47777675       0.29636248
Pd       3.05359414       2.70292461       4.56516084  F       0.00000000       0.00000000       0.00000000       0.01351956       0.00100663       0.20518974
Pd       6.10718542       2.70292306       1.50000000  F       0.00000000       0.00000000       0.00000000       0.00030660       0.00027596      -0.90511988
Pd       3.05359287       8.10876720       4.56515841  F       0.00000000       0.00000000       0.00000000       0.01265712      -0.00717894       0.18432028
Pd       2.62575163       2.70224452      10.79492606  T       0.00000000       0.00000000       0.00000000       0.01295394       0.01397928      -0.00765372
Pd       3.07168855       2.69648282       7.66677928  T       0.00000000       0.00000000       0.00000000      -0.01453126       0.01343166       0.01029453
Pd       3.05359271       2.70292306       1.50000000  F       0.00000000       0.00000000       0.00000000      -0.00011849      -0.00016777      -0.90401940
Pd       4.58038906       5.40584612       3.02679635  F       0.00000000       0.00000000       0.00000000      -0.00031535      -0.00024473       0.06068955
Pd       4.58038878       0.00000011       6.09434618  F       0.00000000       0.00000000       0.00000000       0.05557402       0.01601561       0.08041281
Pd       4.58038808       5.40584530       6.09434913  F       0.00000000       0.00000000       0.00000000       0.04545550      -0.03718868       0.07242432
Pd       7.63398177       0.00000000       3.02679635  F       0.00000000       0.00000000       0.00000000      -0.00114212       0.00009016       0.05784965
Pd       3.05359271       8.10876919       1.50000000  F       0.00000000       0.00000000       0.00000000       0.00019614      -0.00004495      -0.90308598
Pd       6.11395941       8.10225771       7.67374657  T       0.00000000       0.00000000       0.00000000       0.00056859       0.00354751      -0.00232672
Pd       7.63398372      10.81169054       6.09434173  F       0.00000000       0.00000000       0.00000000      -0.01668763      -0.03055423       0.09148347
Pd       6.10718498       8.10876457       4.56515665  F       0.00000000       0.00000000       0.00000000       0.00896729       0.00203054       0.24355660
Pd       1.52679863       5.40584339       6.09434623  F       0.00000000       0.00000000       0.00000000       0.05709238       0.00556465       0.08899135
Pd       7.63398177       5.40584612       3.02679635  F       0.00000000       0.00000000       0.00000000      -0.00111570      -0.00134461       0.05719634
Pd       6.10718542       8.10876919       1.50000000  F       0.00000000       0.00000000       0.00000000      -0.00030169       0.00037788      -0.90419790
Pd      -0.01568680       8.11627367       7.65821500  T       0.00000000       0.00000000       0.00000000       0.00237315       0.00506023      -0.00238134
Pd       6.56249838       2.67406018      10.81941495  T       0.00000000       0.00000000       0.00000000      -0.00812907      -0.00259079      -0.01683003
Pd       1.55366661       5.40014690       9.10179755  T       0.00000000       0.00000000       0.00000000       0.00167096       0.01058140      -0.01934679
Pd       7.65031688      -0.03427996       9.14184830  T       0.00000000       0.00000000       0.00000000      -0.00283948       0.00837798       0.00773668
Pd       6.12202870       2.69383528       7.67993539  T       0.00000000       0.00000000       0.00000000       0.00983006       0.00629486       0.00587286
Pd      12.45752816       7.78990083      10.89818034  T       0.00000000       0.00000000       0.00000000       0.01445698       0.01136120      -0.00536106
Pd       6.10718636       2.70292272       4.56515365  F       0.00000000       0.00000000       0.00000000      -0.00266308       0.00852810       0.27237675
Pd       3.09525580       8.12289719       7.66226356  T       0.00000000       0.00000000       0.00000000       0.00850547      -0.00445491       0.04290196
Pd       0.00000286       8.10876728       4.56515590  F       0.00000000       0.00000000       0.00000000      -0.00055632      -0.01877536       0.15996434
Pd       4.61734408       5.36693996       9.17209301  T       0.00000000       0.00000000       0.00000000       0.00374389      -0.00484107      -0.00180142
Pd       9.16077813       2.70292306       1.50000000  F       0.00000000       0.00000000       0.00000000      -0.00042765       0.00023459      -0.90180292
Pd       2.82194859       7.82137650      10.89012158  T       0.00000000       0.00000000       0.00000000       0.00538904      -0.01288098       0.02557036
Pd       0.00000000       8.10876919       1.50000000  F       0.00000000       0.00000000       0.00000000      -0.00001583      -0.00003178      -0.90334552
Pd       9.62722589       8.07048800      10.76335733  T       0.00000000       0.00000000       0.00000000      -0.00416733       0.00526864       0.01619841
Pd       1.52679635       0.00000000       3.02679635  F       0.00000000       0.00000000       0.00000000       0.00037135       0.00154112       0.04772508
Pd       1.52679635       5.40584612       3.02679635  F       0.00000000       0.00000000       0.00000000      -0.00014732      -0.00147141       0.05328585
Pd      10.68757448       0.00000000       3.02679635  F       0.00000000       0.00000000       0.00000000      -0.00164955      -0.00247069       0.05117370
Pd      10.69042692       5.37196215       9.11055183  T       0.00000000       0.00000000       0.00000000      -0.00961889      -0.00329339      -0.00615226
Pd       9.16077751       2.70292195       4.56515514  F       0.00000000       0.00000000       0.00000000      -0.00458185       0.01134777       0.20182989
Pd      10.68757769      10.81169125       6.09434037  F       0.00000000       0.00000000       0.00000000      -0.01319840      -0.01651262       0.06505150
Pd       9.16077986       8.10876364       4.56515811  F       0.00000000       0.00000000       0.00000000      -0.00890598      -0.00080459       0.16460009
Pd       1.52679695      10.81169175       6.09434358  F       0.00000000       0.00000000       0.00000000       0.01209100       0.01954523       0.06236186
Pd       9.16489013       8.09946237       7.65828224  T       0.00000000       0.00000000       0.00000000      -0.00725361      -0.00251963       0.01585955
Pd       9.14567083       2.69463350       7.66824432  T       0.00000000       0.00000000       0.00000000      -0.00855296       0.00617747      -0.01549902
Pd      10.70486120      -0.01501187       9.07137427  T       0.00000000       0.00000000       0.00000000      -0.00483496       0.01461163      -0.00677625
Pd       0.00000037       2.70292295       4.56515782  F       0.00000000       0.00000000       0.00000000       0.00431656       0.01990777       0.14468681
Pd       1.53949563      10.79929024       9.06867409  T       0.00000000       0.00000000       0.00000000       0.02476887       0.01292497       0.01403299
Pd       9.35464949       2.67257685      10.97138478  T       0.00000000       0.00000000       0.00000000      -0.01478927      -0.00852219      -0.02882580
Pd       5.70560324       8.07032679      10.79658073  T       0.00000000       0.00000000       0.00000000      -0.02139199       0.01004672      -0.00543507
Pd      12.23767286       2.69768895       7.65292339  T       0.00000000       0.00000000       0.00000000      -0.01207544       0.00224384       0.00811555
Pd      10.68757879       5.40584476       6.09434230  F       0.00000000       0.00000000       0.00000000      -0.00080217      -0.01238517       0.04990219
Pd       9.16077813       8.10876919       1.50000000  F       0.00000000       0.00000000       0.00000000       0.00025379       0.00027168      -0.90307752
Pd      10.68757448       5.40584612       3.02679635  F       0.00000000       0.00000000       0.00000000       0.00056355       0.00180906       0.05326612
Pd      12.04359827       2.72407810      10.94114192  T       0.00000000       0.00000000       0.00000000      -0.00467417       0.00728636      -0.00207420
Pd       4.59452659      10.81649341       9.14474440  T       0.00000000       0.00000000       0.00000000      -0.01753871       0.00120785       0.01531565
Pd       7.63398212       5.40584800       6.09434442  F       0.00000000       0.00000000       0.00000000      -0.02759598      -0.04274269       0.06747974
Pd       7.64908031       5.40496673       9.15731990  T       0.00000000       0.00000000       0.00000000      -0.00652253      -0.00126055      -0.00865085
Pd       4.58038906       0.00000000       3.02679635  F       0.00000000       0.00000000       0.00000000       0.00136663      -0.00023694       0.05811902
Pd       0.00000000       2.70292306       1.50000000  F       0.00000000       0.00000000       0.00000000       0.00029272      -0.00000411      -0.90233271
C       -1.48095763       1.95494709      12.17909247  T       0.00000000       0.00000000       0.00000000       0.00073407       0.00406637      -0.00110682
O       -1.48823413       1.29130543      13.16867662  T       0.00000000       0.00000000       0.00000000       0.00080188       0.00273638       0.00777717
O        1.53067942       8.62902795      12.33658033  T       0.00000000       0.00000000       0.00000000       0.01046806       0.00318839       0.00830893
C        1.52528962      10.04701922      12.56420420  T       0.00000000       0.00000000       0.00000000      -0.00243721      -0.03733028      -0.02811390
H        0.62606675      10.31504669      13.14362344  T       0.00000000       0.00000000       0.00000000       0.00093679       0.00354768       0.02041564
H        2.43375554      10.31977324      13.13167373  T       0.00000000       0.00000000       0.00000000       0.00444932      -0.00221700       0.02468055
H        1.51646132      10.60934274      11.60377109  T       0.00000000       0.00000000       0.00000000      -0.00744294       0.01288488      -0.00455274
