135
Lattice="12.21437083684855 0.0 7e-16 1.7e-15 10.811692246786171 7e-16 0.0 0.0 30.687574482242482" Properties=species:S:1:pos:R:3:move_mask:L:1:momenta:R:3:forces:R:3 idx=6693 E_MACE=-716.1298553880746 d_min=1.4694052574762455 d_reactive=1.1800290921719678 rank=0 dE_rel_meV=0.0 converged=T energy=-716.1298553880746 stress="-0.0001607752216977766 3.3776200963143014e-07 -5.93087034779506e-05 3.3776200963143014e-07 -0.0013048856793386344 -0.00015356233141192323 -5.93087034779506e-05 -0.00015356233141192323 -0.003742228358669699" pbc="T T T"
O        3.05587870       6.69012926      12.16052354  T       0.00000000       0.00000000       0.00000000      -0.03035525       0.00139730      -0.01148420
O        6.09575648       1.27726592      12.16533044  T       0.00000000       0.00000000       0.00000000       0.00182700      -0.00685274       0.00217660
O        6.10200161       4.07801506      12.19481216  T       0.00000000       0.00000000       0.00000000       0.00949815       0.01258830      -0.00408469
O        6.09633077       1.34885208       9.16519753  T       0.00000000       0.00000000       0.00000000       0.01429757      -0.00106677       0.00380958
O        6.10391664       4.04196305       9.17321915  T       0.00000000       0.00000000       0.00000000       0.00277895      -0.01929782       0.01816444
O        6.10718343       1.35539432       6.10801899  F       0.00000000       0.00000000       0.00000000      -0.00250756       0.00680958       0.06430053
O        6.10718534       4.05045008       6.10801162  F       0.00000000       0.00000000       0.00000000       0.00046020      -0.01964899       0.08323208
O        6.10718542       1.35146153       3.02679635  F       0.00000000       0.00000000       0.00000000      -0.00018985      -0.47192874       0.31426155
O        6.10718542       4.05438459       3.02679635  F       0.00000000       0.00000000       0.00000000      -0.00028402       0.47139872       0.31364946
O        9.13197277       9.44263269      12.17665818  T       0.00000000       0.00000000       0.00000000       0.01637837       0.00936824       0.00327014
O        3.03309429       9.48228927      12.17848331  T       0.00000000       0.00000000       0.00000000       0.00213401       0.01302907      -0.01526429
O        3.05033054       6.75244218       9.16295682  T       0.00000000       0.00000000       0.00000000      -0.00211340       0.00003823       0.00794201
O        3.04215476       9.45158317       9.17153392  T       0.00000000       0.00000000       0.00000000      -0.00395034      -0.01016726       0.00646426
O        3.05359341       6.76124998       6.10801980  F       0.00000000       0.00000000       0.00000000      -0.00284422       0.00849047       0.06894820
O        3.05359360       9.45629444       6.10802097  F       0.00000000       0.00000000       0.00000000      -0.01047766      -0.01831960       0.08720390
O        3.05359271       6.75730765       3.02679635  F       0.00000000       0.00000000       0.00000000      -0.00013790      -0.47142425       0.31412642
O        3.05359271       9.46023072       3.02679635  F       0.00000000       0.00000000       0.00000000      -0.00020294       0.47115724       0.31402035
O        3.02756236       1.28422819      12.16777113  T       0.00000000       0.00000000       0.00000000      -0.00365529       0.01217478       0.00552226
O        6.10718542       9.46023072       3.02679635  F       0.00000000       0.00000000       0.00000000      -0.00026068       0.47088469       0.31502516
O        6.10718542       6.75730765       3.02679635  F       0.00000000       0.00000000       0.00000000      -0.00017839      -0.47134774       0.31515065
O        6.10718028       9.45628983       6.10801454  F       0.00000000       0.00000000       0.00000000      -0.00924234      -0.01005389       0.07146228
O        6.10718760       6.76124043       6.10802244  F       0.00000000       0.00000000       0.00000000       0.00244903      -0.01318952       0.04403969
O        9.15740467       6.74072992       9.15307807  T       0.00000000       0.00000000       0.00000000       0.02188651      -0.00599030       0.01094140
O        9.14943458       9.44481262       9.17010339  T       0.00000000       0.00000000       0.00000000      -0.00234611      -0.00098887       0.01174048
O        9.16078073       6.76123572       6.10801818  F       0.00000000       0.00000000       0.00000000      -0.00151172      -0.01024322       0.03892585
O        9.16078059       9.45627785       6.10801483  F       0.00000000       0.00000000       0.00000000      -0.00859410      -0.01267102       0.08472466
O        9.16077813       6.75730765       3.02679635  F       0.00000000       0.00000000       0.00000000       0.00002154      -0.47109953       0.31473212
O        9.16077813       9.46023072       3.02679635  F       0.00000000       0.00000000       0.00000000      -0.00008270       0.47108069       0.31475906
O        9.13554255       1.22330017      12.11449381  T       0.00000000       0.00000000       0.00000000      -0.00338332       0.01420918       0.02694250
O        9.15948593       4.00532449      12.30780536  T       0.00000000       0.00000000       0.00000000      -0.00821825      -0.00564381       0.01256214
O        3.05206023       4.07697945      12.18621431  T       0.00000000       0.00000000       0.00000000      -0.01042547      -0.00014907      -0.00863448
O        9.15362050       1.34925844       9.15732372  T       0.00000000       0.00000000       0.00000000      -0.00815646       0.00177015      -0.01326069
O        9.16077827       1.35539012       6.10801450  F       0.00000000       0.00000000       0.00000000      -0.00034209       0.01787949       0.05506885
O        9.16078421       4.05045012       6.10800209  F       0.00000000       0.00000000       0.00000000       0.00697140       0.00561330       0.06564421
O        9.16077813       1.35146153       3.02679635  F       0.00000000       0.00000000       0.00000000      -0.00007365      -0.47186854       0.31442965
O        9.16077813       4.05438459       3.02679635  F       0.00000000       0.00000000       0.00000000      -0.00001820       0.47119673       0.31468768
O        6.10196044       6.69945947      12.15066380  T       0.00000000       0.00000000       0.00000000      -0.00066364       0.00633304       0.01129885
O        6.06563104       9.46872711      12.17797256  T       0.00000000       0.00000000       0.00000000       0.01038403      -0.01038674      -0.00276605
O        6.10851239       6.74720658       9.15493788  T       0.00000000       0.00000000       0.00000000       0.00215386       0.00571985       0.00842877
O        6.09489283       9.45277687       9.16351764  T       0.00000000       0.00000000       0.00000000      -0.00040350      -0.01163974       0.01207195
O        9.16245189       4.03290698       9.18454477  T       0.00000000       0.00000000       0.00000000      -0.00865920      -0.00676170       0.00689189
O        3.04091153       1.34893983       9.16909261  T       0.00000000       0.00000000       0.00000000       0.00185207       0.00975189       0.00781592
O        9.15978012       6.67710227      12.16694906  T       0.00000000       0.00000000       0.00000000      -0.02060926       0.01825467       0.00274066
O       12.20180189       9.46039620      12.18705185  T       0.00000000       0.00000000       0.00000000       0.01400150       0.00638161      -0.00596471
O        0.00000000       6.75730765       3.02679635  F       0.00000000       0.00000000       0.00000000       0.00003268      -0.47129946       0.31452286
O        3.05321214       4.04272498       9.17797727  T       0.00000000       0.00000000       0.00000000      -0.01842642      -0.00194019      -0.01097048
O       -0.03590184       1.27320281      12.17729962  T       0.00000000       0.00000000       0.00000000       0.02449503       0.00978897      -0.01155735
O        0.00000951       9.45630243       6.10801529  F       0.00000000       0.00000000       0.00000000      -0.00598458      -0.01533085       0.08448120
O       12.21687887       4.08107200      12.19859330  T       0.00000000       0.00000000       0.00000000      -0.00436972      -0.01066462       0.00578876
O        0.00000182       6.76124509       6.10800952  F       0.00000000       0.00000000       0.00000000      -0.00196880       0.00091883       0.05891870
O       -0.00960708       9.45004399       9.17115689  T       0.00000000       0.00000000       0.00000000       0.00217608      -0.00924088      -0.00360958
O       -0.01195383       1.34662514       9.17121687  T       0.00000000       0.00000000       0.00000000       0.00640999       0.00359518       0.00764309
O       -0.00511500       6.74844066       9.15976706  T       0.00000000       0.00000000       0.00000000       0.00592071      -0.00503405      -0.00501840
O       12.21604756       4.03524623       9.18308544  T       0.00000000       0.00000000       0.00000000      -0.01453948       0.01884947      -0.01224706
O       12.21551592       6.70110671      12.15797441  T       0.00000000       0.00000000       0.00000000       0.00132140      -0.00381096       0.00549767
O        0.00000448       1.35539672       6.10801283  F       0.00000000       0.00000000       0.00000000      -0.00823733       0.01524322       0.07547250
O        0.00000331       4.05045002       6.10801189  F       0.00000000       0.00000000       0.00000000       0.00612845      -0.03438263       0.10436298
O        3.05359271       4.05438459       3.02679635  F       0.00000000       0.00000000       0.00000000      -0.00016791       0.47150233       0.31296160
O        0.00000000       9.46023072       3.02679635  F       0.00000000       0.00000000       0.00000000      -0.00004683       0.47089672       0.31440277
O        3.05359105       4.05044320       6.10802763  F       0.00000000       0.00000000       0.00000000       0.00085648      -0.02520168       0.09764453
O        3.05359271       1.35146153       3.02679635  F       0.00000000       0.00000000       0.00000000      -0.00026968      -0.47154492       0.31336465
O        3.05359652       1.35540103       6.10801944  F       0.00000000       0.00000000       0.00000000      -0.01026724       0.01899474       0.08116292
O        0.00000000       4.05438459       3.02679635  F       0.00000000       0.00000000       0.00000000       0.00013873       0.47132604       0.31266222
O        0.00000000       1.35146153       3.02679635  F       0.00000000       0.00000000       0.00000000      -0.00009008      -0.47187769       0.31345745
Pd       7.60605251       5.40502273      12.04500209  T       0.00000000       0.00000000       0.00000000      -0.00886544       0.00421963      -0.00872919
Pd      10.71327288       5.40660737      12.04682512  T       0.00000000       0.00000000       0.00000000       0.01571077      -0.00619094      -0.01620285
Pd       0.00000000       8.10876919       1.50000000  F       0.00000000       0.00000000       0.00000000      -0.00000787       0.00012566      -0.90391900
Pd       9.14765791       8.07029859      10.75680462  T       0.00000000       0.00000000       0.00000000       0.00818687       0.02412237       0.00848172
Pd       1.52679635       0.00000000       3.02679635  F       0.00000000       0.00000000       0.00000000       0.00025325       0.00008844       0.04917421
Pd       9.16077813       2.70292306       1.50000000  F       0.00000000       0.00000000       0.00000000      -0.00007434       0.00009402      -0.90419982
Pd      10.68757448       0.00000000       3.02679635  F       0.00000000       0.00000000       0.00000000       0.00025965       0.00015351       0.04870911
Pd      10.68876695       5.38854473       9.13679904  T       0.00000000       0.00000000       0.00000000      -0.01015134      -0.01273240       0.01088369
Pd       1.50083653      -0.03003975      12.03196943  T       0.00000000       0.00000000       0.00000000       0.01756375       0.03632207      -0.01671507
Pd       9.16077900       2.70292450       4.56559698  F       0.00000000       0.00000000       0.00000000       0.00045948      -0.00325973       0.11240766
Pd      10.68756280      10.81168006       6.11657659  F       0.00000000       0.00000000       0.00000000       0.00313373      -0.00184722      -0.04833916
Pd       9.16077776       8.10875607       4.56559406  F       0.00000000       0.00000000       0.00000000       0.00065223       0.00342963       0.11676965
Pd       1.52678677       0.00000067       6.11658292  F       0.00000000       0.00000000       0.00000000       0.00439663      -0.00319046      -0.04297558
Pd       9.15556769       8.10324139       7.64767784  T       0.00000000       0.00000000       0.00000000       0.01327276       0.01369586       0.00452776
Pd       9.16206960       2.70520033       7.64892595  T       0.00000000       0.00000000       0.00000000      -0.01227573      -0.00276854      -0.00743854
Pd      10.67780303      -0.01116399       9.14118844  T       0.00000000       0.00000000       0.00000000       0.00596903      -0.00224305      -0.01230145
Pd       0.00000135       2.70292705       4.56560641  F       0.00000000       0.00000000       0.00000000       0.00104139       0.00175280       0.12595981
Pd       1.51539890      10.80595901       9.14476302  T       0.00000000       0.00000000       0.00000000       0.00628733      -0.00682009      -0.00922518
Pd       9.15427176       2.63120194      10.75460673  T       0.00000000       0.00000000       0.00000000      -0.01621192      -0.00123636      -0.00246883
Pd       6.09348971       8.09445660      10.75081969  T       0.00000000       0.00000000       0.00000000       0.00494565       0.00127960      -0.00693288
Pd      10.67014654      10.74570989      12.02036963  T       0.00000000       0.00000000       0.00000000       0.01407922      -0.02203830      -0.01814502
Pd      -0.00194207       2.69845794       7.65358782  T       0.00000000       0.00000000       0.00000000      -0.00535035       0.00755826       0.00269143
Pd      10.68757280       5.40584816       6.11657764  F       0.00000000       0.00000000       0.00000000       0.00431635      -0.00956980      -0.04817054
Pd       9.16077813       8.10876919       1.50000000  F       0.00000000       0.00000000       0.00000000      -0.00000232       0.00006182      -0.90405339
Pd      10.68757448       5.40584612       3.02679635  F       0.00000000       0.00000000       0.00000000       0.00054660      -0.00001361       0.04921100
Pd      12.20582062       2.68554978      10.77754408  T       0.00000000       0.00000000       0.00000000      -0.00970541       0.00416809       0.02096666
Pd       4.56767493      -0.00469616       9.13908789  T       0.00000000       0.00000000       0.00000000      -0.00254384       0.00044608       0.00416567
Pd       7.63397856       5.40585179       6.11657833  F       0.00000000       0.00000000       0.00000000      -0.00042124      -0.01011878      -0.04921670
Pd       7.63263652       5.38761269       9.13241557  T       0.00000000       0.00000000       0.00000000      -0.00344359       0.00513918       0.01378567
Pd       4.57518992       5.38144639      12.02143993  T       0.00000000       0.00000000       0.00000000       0.00663175       0.01753430      -0.00497337
Pd       3.04502044       8.09505295      10.76428848  T       0.00000000       0.00000000       0.00000000       0.00810522      -0.00194077      -0.00717384
Pd       4.58038906       0.00000000       3.02679635  F       0.00000000       0.00000000       0.00000000       0.00020936       0.00018448       0.04873374
Pd       4.57829042       5.39726881       9.14065587  T       0.00000000       0.00000000       0.00000000      -0.00059851      -0.00476068      -0.00891937
Pd       3.04834126       8.10640807       7.65017693  T       0.00000000       0.00000000       0.00000000       0.00641640       0.00746983      -0.00020485
Pd       3.05359494       2.70292824       4.56560681  F       0.00000000       0.00000000       0.00000000       0.00025507       0.00069896       0.12648910
Pd       3.05359271       2.70292306       1.50000000  F       0.00000000       0.00000000       0.00000000       0.00004890       0.00007866      -0.90377950
Pd       4.58039501       5.40584640       6.11658908  F       0.00000000       0.00000000       0.00000000      -0.00330817      -0.00792504      -0.03970581
Pd       4.58040505      10.81168838       6.11658203  F       0.00000000       0.00000000       0.00000000      -0.00073813      -0.00314766      -0.03636372
Pd       4.58038906       5.40584612       3.02679635  F       0.00000000       0.00000000       0.00000000      -0.00001262      -0.00019969       0.04877426
Pd       3.05359271       8.10876919       1.50000000  F       0.00000000       0.00000000       0.00000000       0.00004787       0.00010059      -0.90390786
Pd       3.04996262       2.70078964       7.65314596  T       0.00000000       0.00000000       0.00000000      -0.00199036      -0.00345862      -0.00343900
Pd       4.55542924      -0.02070992      12.02527988  T       0.00000000       0.00000000       0.00000000       0.00211341      -0.00704408      -0.00996939
Pd       3.04206670       2.68874028      10.77245719  T       0.00000000       0.00000000       0.00000000       0.00762780      -0.00025052       0.00750539
Pd       3.05359569       8.10876742       4.56559865  F       0.00000000       0.00000000       0.00000000       0.00057001       0.00111415       0.12090437
Pd       6.10718542       2.70292306       1.50000000  F       0.00000000       0.00000000       0.00000000       0.00005061       0.00018335      -0.90419829
Pd       7.63398177       0.00000000       3.02679635  F       0.00000000       0.00000000       0.00000000       0.00032787       0.00006254       0.04822800
Pd       1.53084585       5.38436166      12.02340850  T       0.00000000       0.00000000       0.00000000      -0.00610055       0.01742456       0.00571631
Pd       6.10417363       8.10444521       7.64639651  T       0.00000000       0.00000000       0.00000000       0.00138901       0.01558727       0.00293619
Pd       0.00000079       8.10876600       4.56559869  F       0.00000000       0.00000000       0.00000000       0.00066443       0.00226734       0.11787992
Pd       6.10718651       8.10875952       4.56558968  F       0.00000000       0.00000000       0.00000000       0.00041170       0.00326415       0.11294259
Pd       1.52680247       5.40584247       6.11658534  F       0.00000000       0.00000000       0.00000000       0.00296938      -0.00875550      -0.04035937
Pd       7.63398177       5.40584612       3.02679635  F       0.00000000       0.00000000       0.00000000      -0.00022667       0.00006357       0.04896892
Pd       6.10718542       8.10876919       1.50000000  F       0.00000000       0.00000000       0.00000000       0.00000810       0.00009248      -0.90420325
Pd      -0.00391227       8.10534722       7.64885301  T       0.00000000       0.00000000       0.00000000       0.00278127       0.00201127      -0.00301710
Pd       7.59842470      10.74763163      12.01169583  T       0.00000000       0.00000000       0.00000000       0.00435100       0.00196658       0.01560265
Pd       6.09929394       2.68783483      10.76932456  T       0.00000000       0.00000000       0.00000000      -0.00847767       0.00177963       0.01300004
Pd       1.52524554       5.39504296       9.14393302  T       0.00000000       0.00000000       0.00000000       0.00205247       0.00142948      -0.00174854
Pd       7.62297479      -0.00775490       9.13707736  T       0.00000000       0.00000000       0.00000000      -0.00543142      -0.01527497       0.00527666
Pd       6.10507231       2.69996162       7.65039385  T       0.00000000       0.00000000       0.00000000      -0.00879514       0.00914350       0.00331562
Pd      12.20414546       8.09103659      10.75543527  T       0.00000000       0.00000000       0.00000000       0.00423621       0.01006819       0.00100810
Pd       7.63399583      10.81167532       6.11657540  F       0.00000000       0.00000000       0.00000000       0.00067361      -0.00082955      -0.04365576
Pd       6.10718592       2.70292523       4.56558724  F       0.00000000       0.00000000       0.00000000      -0.00034130       0.00089107       0.11934294
Pd       1.52679635       5.40584612       3.02679635  F       0.00000000       0.00000000       0.00000000       0.00007791      -0.00010171       0.04889613
Pd       0.00000000       2.70292306       1.50000000  F       0.00000000       0.00000000       0.00000000      -0.00005294       0.00017882      -0.90389115
C       11.93771107      11.14881220      15.43419234  T       0.00000000       0.00000000       0.00000000       0.00550175      -0.01221125       0.01180173
O       13.01770731      10.67677346      15.43134735  T       0.00000000       0.00000000       0.00000000       0.00799477       0.01531503      -0.02311865
O       10.85520249       0.80615919      15.45960918  T       0.00000000       0.00000000       0.00000000      -0.00111330      -0.00830191      -0.00878205
C        9.16474806       3.48058184      13.68031011  T       0.00000000       0.00000000       0.00000000       0.00569904       0.03234566       0.01331065
H        8.23575062       2.91435115      13.83909176  T       0.00000000       0.00000000       0.00000000       0.01352805      -0.02578927      -0.00381277
H        9.21754269       4.33775754      14.37096738  T       0.00000000       0.00000000       0.00000000      -0.01117066      -0.00293343      -0.00955359
H       10.04318209       2.83323727      13.80116158  T       0.00000000       0.00000000       0.00000000      -0.01872500      -0.00453348       0.01078497
