135
Lattice="12.21437083684855 0.0 7e-16 1.7e-15 10.811692246786171 7e-16 0.0 0.0 30.687574482242482" Properties=species:S:1:pos:R:3:move_mask:L:1:momenta:R:3:forces:R:3 idx=849 E_MACE=-713.2088961178915 d_min=1.9973378958282344 d_reactive=3.8285797458566275 rank=4141 dE_rel_meV=2920.9592701830616 converged=T energy=-713.2088961178915 stress="-0.0002280356584125568 -5.044630253657858e-06 -0.0001418752323714712 -5.044630253657858e-06 -0.0013147965102727928 -2.6779242889124133e-05 -0.0001418752323714712 -2.6779242889124133e-05 -0.00399658704250633" pbc="T T T"
O        3.03686021       6.71812039      12.14731149  T       0.00000000       0.00000000       0.00000000      -0.00107649       0.00272562      -0.00405220
O        6.07995183       1.30188992      12.16097608  T       0.00000000       0.00000000       0.00000000      -0.00367997      -0.01135012      -0.00302056
O        6.07126631       4.09489399      12.16438389  T       0.00000000       0.00000000       0.00000000      -0.00473288       0.00112339      -0.01039317
O        6.09088863       1.35397552       9.16428998  T       0.00000000       0.00000000       0.00000000       0.00032878      -0.00942305      -0.01277636
O        6.09121348       4.05011248       9.16503826  T       0.00000000       0.00000000       0.00000000      -0.00734175      -0.00293129      -0.00522235
O        6.10718343       1.35539432       6.10801899  F       0.00000000       0.00000000       0.00000000      -0.00786191       0.00627722       0.06439275
O        6.10718534       4.05045008       6.10801162  F       0.00000000       0.00000000       0.00000000      -0.00956911      -0.01171539       0.06983416
O        6.10718542       1.35146153       3.02679635  F       0.00000000       0.00000000       0.00000000      -0.00017483      -0.47135411       0.31471032
O        6.10718542       4.05438459       3.02679635  F       0.00000000       0.00000000       0.00000000      -0.00024042       0.47130914       0.31453040
O        9.12836661       9.49917809      12.17302464  T       0.00000000       0.00000000       0.00000000       0.02183861      -0.00546442      -0.00334875
O        3.02929254       9.49928360      12.15685155  T       0.00000000       0.00000000       0.00000000      -0.00365346       0.00291063      -0.00160028
O        3.03539126       6.75564082       9.17356771  T       0.00000000       0.00000000       0.00000000       0.00568265       0.00216685       0.00521357
O        3.03643202       9.45847344       9.16194246  T       0.00000000       0.00000000       0.00000000      -0.00420787      -0.00403302      -0.00844009
O        3.05359341       6.76124998       6.10801980  F       0.00000000       0.00000000       0.00000000      -0.02016198      -0.01028865       0.07180252
O        3.05359360       9.45629444       6.10802097  F       0.00000000       0.00000000       0.00000000      -0.01349952      -0.02425118       0.08238024
O        3.05359271       6.75730765       3.02679635  F       0.00000000       0.00000000       0.00000000      -0.00082316      -0.47103504       0.31425903
O        3.05359271       9.46023072       3.02679635  F       0.00000000       0.00000000       0.00000000      -0.00036923       0.47062958       0.31551619
O        3.02649716       1.29690569      12.13973451  T       0.00000000       0.00000000       0.00000000       0.00012951      -0.00578711       0.00493856
O        6.10718542       9.46023072       3.02679635  F       0.00000000       0.00000000       0.00000000      -0.00019438       0.47124695       0.31469278
O        6.10718542       6.75730765       3.02679635  F       0.00000000       0.00000000       0.00000000      -0.00026808      -0.47137641       0.31453071
O        6.10718028       9.45628983       6.10801454  F       0.00000000       0.00000000       0.00000000      -0.00774255      -0.00696631       0.06677281
O        6.10718760       6.76124043       6.10802244  F       0.00000000       0.00000000       0.00000000      -0.01057432       0.01072649       0.06723546
O        9.14016604       6.76152173       9.16409612  T       0.00000000       0.00000000       0.00000000       0.00381628      -0.00386269       0.00731612
O        9.14159850       9.45800226       9.16656184  T       0.00000000       0.00000000       0.00000000       0.01202229      -0.01010074      -0.01048623
O        9.16078073       6.76123572       6.10801818  F       0.00000000       0.00000000       0.00000000      -0.00675029       0.01097119       0.06970027
O        9.16078059       9.45627785       6.10801483  F       0.00000000       0.00000000       0.00000000      -0.00691472      -0.00906301       0.06885611
O        9.16077813       6.75730765       3.02679635  F       0.00000000       0.00000000       0.00000000      -0.00042483      -0.47134248       0.31438868
O        9.16077813       9.46023072       3.02679635  F       0.00000000       0.00000000       0.00000000      -0.00040915       0.47115286       0.31465424
O        9.13314678       1.29972649      12.16819509  T       0.00000000       0.00000000       0.00000000       0.01609775       0.00080379      -0.01354458
O        9.11848500       4.09419743      12.16312951  T       0.00000000       0.00000000       0.00000000       0.01939620      -0.00895133      -0.00836678
O        3.04183273       4.07548110      12.14790843  T       0.00000000       0.00000000       0.00000000      -0.00353792       0.00377003      -0.00217716
O        9.14333447       1.35289889       9.16558099  T       0.00000000       0.00000000       0.00000000       0.00910253       0.00137077      -0.01312369
O        9.16077827       1.35539012       6.10801450  F       0.00000000       0.00000000       0.00000000      -0.00599126       0.01092385       0.07009835
O        9.16078421       4.05045012       6.10800209  F       0.00000000       0.00000000       0.00000000      -0.00666926      -0.01367713       0.07500951
O        9.16077813       1.35146153       3.02679635  F       0.00000000       0.00000000       0.00000000      -0.00042399      -0.47132530       0.31446087
O        9.16077813       4.05438459       3.02679635  F       0.00000000       0.00000000       0.00000000      -0.00046152       0.47119903       0.31432133
O        6.06985124       6.70748714      12.15935855  T       0.00000000       0.00000000       0.00000000      -0.00248451      -0.00203599      -0.00319511
O        6.08193985       9.50121704      12.16553305  T       0.00000000       0.00000000       0.00000000      -0.00440810       0.00437223      -0.00099382
O        6.09114974       6.75925290       9.16331004  T       0.00000000       0.00000000       0.00000000      -0.00755936       0.00153708      -0.00332488
O        6.09221250       9.45609599       9.16566048  T       0.00000000       0.00000000       0.00000000      -0.00277660       0.00543648      -0.01104227
O        9.14099820       4.04845708       9.16723836  T       0.00000000       0.00000000       0.00000000       0.00631335       0.00198444      -0.00141224
O        3.03503653       1.34822954       9.15588587  T       0.00000000       0.00000000       0.00000000      -0.00224859       0.00242886      -0.00475124
O        9.12155572       6.70618108      12.15571615  T       0.00000000       0.00000000       0.00000000       0.02165132       0.00585620      -0.00397917
O       12.18795617       9.49582541      12.16593033  T       0.00000000       0.00000000       0.00000000      -0.00607612       0.00110141       0.00180752
O        0.00000000       6.75730765       3.02679635  F       0.00000000       0.00000000       0.00000000       0.00013803      -0.47106789       0.31411106
O        3.03506550       4.05427883       9.17296485  T       0.00000000       0.00000000       0.00000000       0.00324274      -0.00722108       0.00609875
O       -0.02896376       1.29327634      12.13015807  T       0.00000000       0.00000000       0.00000000      -0.00408279       0.00644702       0.00913498
O        0.00000951       9.45630243       6.10801529  F       0.00000000       0.00000000       0.00000000      -0.00561282      -0.02211622       0.08137413
O       12.15537384       4.07984475      12.15863030  T       0.00000000       0.00000000       0.00000000       0.01684999       0.00944474       0.00446169
O        0.00000182       6.76124509       6.10800952  F       0.00000000       0.00000000       0.00000000      -0.00089685      -0.00162923       0.07731647
O       -0.01882640       9.45641394       9.16578990  T       0.00000000       0.00000000       0.00000000       0.00373531       0.00320095      -0.00370484
O       -0.01840067       1.35130480       9.15718770  T       0.00000000       0.00000000       0.00000000       0.00548233      -0.00065547       0.00098310
O       -0.02058553       6.75801250       9.17528960  T       0.00000000       0.00000000       0.00000000      -0.00845040       0.00368828      -0.00171910
O       12.19254388       4.05430314       9.17447936  T       0.00000000       0.00000000       0.00000000      -0.00386681      -0.00333779      -0.00466588
O       12.16262325       6.71007770      12.14725335  T       0.00000000       0.00000000       0.00000000       0.01007516      -0.00863944      -0.00203055
O        0.00000448       1.35539672       6.10801283  F       0.00000000       0.00000000       0.00000000      -0.00507525       0.01545163       0.06913415
O        0.00000331       4.05045002       6.10801189  F       0.00000000       0.00000000       0.00000000      -0.00162257       0.00946378       0.07111695
O        3.05359271       4.05438459       3.02679635  F       0.00000000       0.00000000       0.00000000      -0.00079744       0.47073523       0.31489112
O        0.00000000       9.46023072       3.02679635  F       0.00000000       0.00000000       0.00000000      -0.00037320       0.47064125       0.31532655
O        3.05359105       4.05044320       6.10802763  F       0.00000000       0.00000000       0.00000000      -0.01965257       0.01296833       0.06961405
O        3.05359271       1.35146153       3.02679635  F       0.00000000       0.00000000       0.00000000      -0.00036966      -0.47064997       0.31610212
O        3.05359652       1.35540103       6.10801944  F       0.00000000       0.00000000       0.00000000      -0.01395588       0.01566410       0.06987627
O        0.00000000       4.05438459       3.02679635  F       0.00000000       0.00000000       0.00000000       0.00010382       0.47067203       0.31494866
O        0.00000000       1.35146153       3.02679635  F       0.00000000       0.00000000       0.00000000      -0.00039127      -0.47058142       0.31602770
Pd       7.59288842       5.40144991      12.00931281  T       0.00000000       0.00000000       0.00000000       0.01940431      -0.00101796       0.01486851
Pd      10.63864904       5.39677263      11.99653863  T       0.00000000       0.00000000       0.00000000      -0.01186783       0.00119071       0.00300348
Pd       0.00000000       8.10876919       1.50000000  F       0.00000000       0.00000000       0.00000000      -0.00007848      -0.00030299      -0.90377563
Pd       9.12926577       8.11027719      10.76134609  T       0.00000000       0.00000000       0.00000000       0.00706927      -0.01381120       0.00594886
Pd       1.52679635       0.00000000       3.02679635  F       0.00000000       0.00000000       0.00000000       0.00056199      -0.00001756       0.04816491
Pd       9.16077813       2.70292306       1.50000000  F       0.00000000       0.00000000       0.00000000       0.00003340       0.00001210      -0.90428912
Pd      10.68757448       0.00000000       3.02679635  F       0.00000000       0.00000000       0.00000000       0.00062509      -0.00000791       0.04829460
Pd      10.66451108       5.40611349       9.13840568  T       0.00000000       0.00000000       0.00000000       0.00409440      -0.00467616       0.00485722
Pd       1.50201541      -0.01149872      12.00240992  T       0.00000000       0.00000000       0.00000000       0.00858984       0.00198181      -0.00335374
Pd       9.16077900       2.70292450       4.56559698  F       0.00000000       0.00000000       0.00000000       0.00137792       0.00105478       0.11892585
Pd      10.68756280      10.81168006       6.11657659  F       0.00000000       0.00000000       0.00000000      -0.00029827      -0.00169015      -0.03465091
Pd       9.16077776       8.10875607       4.56559406  F       0.00000000       0.00000000       0.00000000       0.00151310      -0.00067249       0.11716585
Pd       1.52678677       0.00000067       6.11658292  F       0.00000000       0.00000000       0.00000000       0.00541083      -0.00325347      -0.04835191
Pd       9.15134006       8.10916888       7.64909343  T       0.00000000       0.00000000       0.00000000      -0.00266178       0.00956095      -0.00587028
Pd       9.15212705       2.70215570       7.64970139  T       0.00000000       0.00000000       0.00000000      -0.00448059      -0.00012953      -0.00742622
Pd      10.66914247      -0.00134144       9.13305246  T       0.00000000       0.00000000       0.00000000      -0.01100167      -0.00368736       0.00558148
Pd       0.00000135       2.70292705       4.56560641  F       0.00000000       0.00000000       0.00000000       0.00208659       0.00084038       0.10663116
Pd       1.50765431      10.80898162       9.13287261  T       0.00000000       0.00000000       0.00000000       0.01693315      -0.00216909      -0.00758526
Pd       9.13320233       2.69528905      10.76373300  T       0.00000000       0.00000000       0.00000000      -0.00388425       0.01037864      -0.00138224
Pd       6.08412569       8.10613847      10.75992493  T       0.00000000       0.00000000       0.00000000       0.00404794       0.00682661       0.01687960
Pd      10.65743387      10.79974583      12.01511304  T       0.00000000       0.00000000       0.00000000      -0.00389434       0.00459713       0.01804419
Pd      -0.00616334       2.70436525       7.64692001  T       0.00000000       0.00000000       0.00000000       0.00083781       0.01786314      -0.00076815
Pd      10.68757280       5.40584816       6.11657764  F       0.00000000       0.00000000       0.00000000       0.00131363       0.00040322      -0.04500771
Pd       9.16077813       8.10876919       1.50000000  F       0.00000000       0.00000000       0.00000000       0.00002433       0.00002182      -0.90434104
Pd      10.68757448       5.40584612       3.02679635  F       0.00000000       0.00000000       0.00000000       0.00051487       0.00004780       0.04787729
Pd      12.18219244       2.69975078      10.74679965  T       0.00000000       0.00000000       0.00000000      -0.00167233       0.00829387       0.00655590
Pd       4.56493488      -0.00187996       9.13173110  T       0.00000000       0.00000000       0.00000000      -0.00509505       0.00052596       0.00537609
Pd       7.63397856       5.40585179       6.11657833  F       0.00000000       0.00000000       0.00000000       0.00393050      -0.00127485      -0.03817810
Pd       7.61662782       5.40449797       9.13461187  T       0.00000000       0.00000000       0.00000000      -0.01109024       0.00036081       0.00437510
Pd       4.54575435       5.39977491      12.00704328  T       0.00000000       0.00000000       0.00000000       0.01084535       0.00308959       0.02544609
Pd       3.03350559       8.10840643      10.74835424  T       0.00000000       0.00000000       0.00000000      -0.00387550      -0.01622813       0.01451730
Pd       4.58038906       0.00000000       3.02679635  F       0.00000000       0.00000000       0.00000000       0.00046201      -0.00001531       0.04806384
Pd       4.56567333       5.40469955       9.13937997  T       0.00000000       0.00000000       0.00000000      -0.00686490       0.00027254       0.00342852
Pd       3.04015854       8.10576234       7.64868367  T       0.00000000       0.00000000       0.00000000       0.00260304       0.00633992      -0.00543569
Pd       3.05359494       2.70292824       4.56560681  F       0.00000000       0.00000000       0.00000000       0.00085028       0.00066942       0.10724404
Pd       3.05359271       2.70292306       1.50000000  F       0.00000000       0.00000000       0.00000000       0.00012076       0.00037545      -0.90381134
Pd       4.58039501       5.40584640       6.11658908  F       0.00000000       0.00000000       0.00000000       0.00766635      -0.00019846      -0.03776227
Pd       4.58040505      10.81168838       6.11658203  F       0.00000000       0.00000000       0.00000000       0.00763425      -0.00195602      -0.03158980
Pd       4.58038906       5.40584612       3.02679635  F       0.00000000       0.00000000       0.00000000       0.00056700       0.00002725       0.04797192
Pd       3.05359271       8.10876919       1.50000000  F       0.00000000       0.00000000       0.00000000       0.00012482      -0.00032460      -0.90375644
Pd       3.03979508       2.70459377       7.64672208  T       0.00000000       0.00000000       0.00000000       0.00125338       0.00468426      -0.00167979
Pd       4.55620372      -0.00665734      12.00706458  T       0.00000000       0.00000000       0.00000000      -0.00141164       0.00590721       0.01806947
Pd       3.03075191       2.69512640      10.74205867  T       0.00000000       0.00000000       0.00000000       0.00181383       0.01455092       0.01979998
Pd       3.05359569       8.10876742       4.56559865  F       0.00000000       0.00000000       0.00000000       0.00072365       0.00009145       0.11203526
Pd       6.10718542       2.70292306       1.50000000  F       0.00000000       0.00000000       0.00000000      -0.00003946       0.00004124      -0.90433863
Pd       7.63398177       0.00000000       3.02679635  F       0.00000000       0.00000000       0.00000000       0.00053769      -0.00002918       0.04840805
Pd       1.49474236       5.39199693      12.11248253  T       0.00000000       0.00000000       0.00000000       0.01979870       0.00204602       0.00060956
Pd       6.09973472       8.10918983       7.64855645  T       0.00000000       0.00000000       0.00000000      -0.00002347      -0.00873521      -0.00096679
Pd       0.00000079       8.10876600       4.56559869  F       0.00000000       0.00000000       0.00000000       0.00206811      -0.00061634       0.11282543
Pd       6.10718651       8.10875952       4.56558968  F       0.00000000       0.00000000       0.00000000       0.00115467      -0.00100442       0.11620219
Pd       1.52680247       5.40584247       6.11658534  F       0.00000000       0.00000000       0.00000000       0.00439712       0.00148185      -0.06897241
Pd       7.63398177       5.40584612       3.02679635  F       0.00000000       0.00000000       0.00000000       0.00059572       0.00004311       0.04806840
Pd       6.10718542       8.10876919       1.50000000  F       0.00000000       0.00000000       0.00000000      -0.00002584      -0.00001297      -0.90434348
Pd      -0.00612158       8.10701338       7.64942152  T       0.00000000       0.00000000       0.00000000       0.00046701      -0.01100640       0.00022434
Pd       7.60642684      10.80765008      12.02055257  T       0.00000000       0.00000000       0.00000000      -0.01191587      -0.00008972      -0.00270734
Pd       6.08329019       2.70055809      10.76035668  T       0.00000000       0.00000000       0.00000000       0.00790773      -0.00864728       0.01371043
Pd       1.50684534       5.40537574       9.18753818  T       0.00000000       0.00000000       0.00000000      -0.00019505      -0.00433645      -0.00561254
Pd       7.61671135      -0.00017307       9.13571764  T       0.00000000       0.00000000       0.00000000      -0.00361671      -0.00156956       0.00332372
Pd       6.09963985       2.70189769       7.64851784  T       0.00000000       0.00000000       0.00000000      -0.00029679       0.01125900      -0.00011093
Pd      12.18623201       8.10987750      10.75450401  T       0.00000000       0.00000000       0.00000000      -0.00410048      -0.00933265      -0.00369823
Pd       7.63399583      10.81167532       6.11657540  F       0.00000000       0.00000000       0.00000000       0.00349181       0.00019160      -0.03758213
Pd       6.10718592       2.70292523       4.56558724  F       0.00000000       0.00000000       0.00000000       0.00124564       0.00139338       0.11619390
Pd       1.52679635       5.40584612       3.02679635  F       0.00000000       0.00000000       0.00000000       0.00055980       0.00005803       0.04371070
Pd       0.00000000       2.70292306       1.50000000  F       0.00000000       0.00000000       0.00000000      -0.00007449       0.00035830      -0.90387262
C        0.17736592       1.91677258      14.99495472  T       0.00000000       0.00000000       0.00000000       0.02747149      -0.00577714       0.01201134
O        1.05195872       1.18369015      15.12158811  T       0.00000000       0.00000000       0.00000000      -0.03509973       0.02066368       0.02844679
O       13.84689148       5.34425290      14.10449065  T       0.00000000       0.00000000       0.00000000      -0.00211876      -0.01307971      -0.01026991
C       12.68972085       5.67993557      14.83298956  T       0.00000000       0.00000000       0.00000000      -0.00066254       0.00594376       0.00522160
H       12.98160581       5.49665219      15.88906893  T       0.00000000       0.00000000       0.00000000      -0.00148759       0.00676956       0.01868517
H       12.38996528       6.74223995      14.71911883  T       0.00000000       0.00000000       0.00000000      -0.00115244      -0.00507000       0.00625698
H       11.81894627       5.02787602      14.59828198  T       0.00000000       0.00000000       0.00000000       0.00870593       0.00235487       0.00389662
