135
Lattice="12.21437083684855 0.0 7e-16 1.7e-15 10.811692246786171 7e-16 0.0 0.0 30.687574482242482" Properties=species:S:1:pos:R:3:move_mask:L:1:momenta:R:3:forces:R:3 idx=1969 E_MACE=-715.3696332043169 d_min=1.4156875131762086 d_reactive=1.334520857070241 rank=7 dE_rel_meV=760.222183757719 converged=T energy=-715.3696332043169 stress="-0.0004744018847707733 -0.00010757819600386302 -2.611989473516818e-05 -0.00010757819600386302 -0.0012342762372992717 -0.00028711761559602385 -2.611989473516818e-05 -0.00028711761559602385 -0.0035744943048117116" pbc="T T T"
O        3.04841520       6.78998366      12.42917591  T       0.00000000       0.00000000       0.00000000       0.01998926       0.00904700       0.00657514
O        6.13543575       1.29971943      12.17651938  T       0.00000000       0.00000000       0.00000000       0.01978743       0.00532594      -0.03758765
O        6.10909161       4.05169743      12.16989013  T       0.00000000       0.00000000       0.00000000      -0.02088950       0.02888503       0.00404954
O        6.10542253       1.34115966       9.15793114  T       0.00000000       0.00000000       0.00000000       0.01198556      -0.00444591      -0.00244232
O        6.09665910       4.04441288       9.16907253  T       0.00000000       0.00000000       0.00000000       0.00168394      -0.01551569       0.00385555
O        6.10718343       1.35539432       6.10801899  F       0.00000000       0.00000000       0.00000000       0.00052960       0.00217577       0.05726659
O        6.10718534       4.05045008       6.10801162  F       0.00000000       0.00000000       0.00000000      -0.00960355      -0.00822608       0.08209613
O        6.10718542       1.35146153       3.02679635  F       0.00000000       0.00000000       0.00000000      -0.00028507      -0.47130767       0.31480920
O        6.10718542       4.05438459       3.02679635  F       0.00000000       0.00000000       0.00000000      -0.00055643       0.47129228       0.31378636
O        9.16340636       9.46522179      12.17714539  T       0.00000000       0.00000000       0.00000000      -0.00932781       0.02577153      -0.02417439
O        3.08353799       9.53934049      12.14475445  T       0.00000000       0.00000000       0.00000000      -0.02212903       0.01668841      -0.00072493
O        3.05094071       6.76028743       9.19774251  T       0.00000000       0.00000000       0.00000000      -0.01748598       0.02244334       0.00094048
O        3.05744072       9.43573904       9.17552041  T       0.00000000       0.00000000       0.00000000      -0.01820700       0.03473505      -0.03024654
O        3.05359341       6.76124998       6.10801980  F       0.00000000       0.00000000       0.00000000      -0.00248530      -0.00317574       0.07044833
O        3.05359360       9.45629444       6.10802097  F       0.00000000       0.00000000       0.00000000       0.00320526      -0.06949710       0.11941863
O        3.05359271       6.75730765       3.02679635  F       0.00000000       0.00000000       0.00000000       0.00004783      -0.47158323       0.31273153
O        3.05359271       9.46023072       3.02679635  F       0.00000000       0.00000000       0.00000000       0.00006230       0.47217186       0.31172656
O        3.05364158       1.31048496      12.17989277  T       0.00000000       0.00000000       0.00000000      -0.00062112       0.02794713       0.02518838
O        6.10718542       9.46023072       3.02679635  F       0.00000000       0.00000000       0.00000000      -0.00033462       0.47187194       0.31263972
O        6.10718542       6.75730765       3.02679635  F       0.00000000       0.00000000       0.00000000      -0.00035364      -0.47179904       0.31254261
O        6.10718028       9.45628983       6.10801454  F       0.00000000       0.00000000       0.00000000      -0.01323116      -0.03952900       0.10908463
O        6.10718760       6.76124043       6.10802244  F       0.00000000       0.00000000       0.00000000      -0.01193517       0.01116002       0.07603327
O        9.15712348       6.74539449       9.15704726  T       0.00000000       0.00000000       0.00000000      -0.00440692       0.00934194       0.02901646
O        9.16055789       9.44365555       9.17277803  T       0.00000000       0.00000000       0.00000000      -0.00694281      -0.01972903       0.01000645
O        9.16078073       6.76123572       6.10801818  F       0.00000000       0.00000000       0.00000000      -0.00170340       0.00241026       0.05399795
O        9.16078059       9.45627785       6.10801483  F       0.00000000       0.00000000       0.00000000       0.00113063      -0.01525817       0.08532703
O        9.16077813       6.75730765       3.02679635  F       0.00000000       0.00000000       0.00000000      -0.00005708      -0.47183407       0.31440425
O        9.16077813       9.46023072       3.02679635  F       0.00000000       0.00000000       0.00000000      -0.00004238       0.47147804       0.31399940
O        9.16342565       1.26956212      12.14645493  T       0.00000000       0.00000000       0.00000000      -0.00129427       0.02149572       0.02679598
O        9.15308480       4.04847105      12.16508323  T       0.00000000       0.00000000       0.00000000      -0.01762215       0.00973550       0.00434613
O        3.05245310       4.09296988      12.21310998  T       0.00000000       0.00000000       0.00000000      -0.01142877       0.01134030       0.00618911
O        9.16133060       1.33484502       9.14883711  T       0.00000000       0.00000000       0.00000000      -0.00747385       0.00834696       0.00797081
O        9.16077827       1.35539012       6.10801450  F       0.00000000       0.00000000       0.00000000       0.00171628      -0.01192282       0.03364695
O        9.16078421       4.05045012       6.10800209  F       0.00000000       0.00000000       0.00000000      -0.00253332      -0.00383167       0.07263486
O        9.16077813       1.35146153       3.02679635  F       0.00000000       0.00000000       0.00000000       0.00001138      -0.47122374       0.31592962
O        9.16077813       4.05438459       3.02679635  F       0.00000000       0.00000000       0.00000000      -0.00002712       0.47119102       0.31512600
O        6.12479688       6.67558369      12.17460964  T       0.00000000       0.00000000       0.00000000       0.02165209       0.01051675       0.00537856
O        6.10524414       9.49373091      12.18019053  T       0.00000000       0.00000000       0.00000000       0.01697998      -0.01253329      -0.02450503
O        6.10052406       6.75263698       9.17432402  T       0.00000000       0.00000000       0.00000000       0.00823548      -0.00698578       0.00438812
O        6.10114768       9.44373962       9.17904246  T       0.00000000       0.00000000       0.00000000       0.00500157      -0.00747718       0.00612930
O        9.15663759       4.04034750       9.16431973  T       0.00000000       0.00000000       0.00000000      -0.00734544      -0.01240791       0.00903385
O        3.05317188       1.35211606       9.17682332  T       0.00000000       0.00000000       0.00000000      -0.01213845      -0.01816842       0.00785203
O        9.15721508       6.66693122      12.15187244  T       0.00000000       0.00000000       0.00000000      -0.01456628       0.02772732       0.00691396
O       12.21397118       9.48785241      12.17329495  T       0.00000000       0.00000000       0.00000000       0.01803687      -0.00989694      -0.01106959
O        0.00000000       6.75730765       3.02679635  F       0.00000000       0.00000000       0.00000000       0.00017114      -0.47175651       0.31315123
O        3.05072294       4.04441116       9.18563601  T       0.00000000       0.00000000       0.00000000       0.00021719       0.01816047      -0.01445014
O       -0.00843420       1.28402731      12.16978947  T       0.00000000       0.00000000       0.00000000      -0.00124615       0.01287678      -0.02963235
O        0.00000951       9.45630243       6.10801529  F       0.00000000       0.00000000       0.00000000       0.00849586      -0.03439733       0.10581656
O       12.20769840       4.04756910      12.16940467  T       0.00000000       0.00000000       0.00000000      -0.01997806      -0.01528861       0.01112003
O        0.00000182       6.76124509       6.10800952  F       0.00000000       0.00000000       0.00000000       0.00195767       0.01106639       0.07041501
O        0.00226059       9.44228541       9.18021722  T       0.00000000       0.00000000       0.00000000       0.03011282      -0.00105511      -0.02094853
O        0.00405032       1.33816788       9.15887514  T       0.00000000       0.00000000       0.00000000      -0.00090691      -0.00045769       0.00291483
O       -0.00319375       6.74989555       9.16890637  T       0.00000000       0.00000000       0.00000000       0.00491988       0.00445428       0.00784215
O       12.21666553       4.04318804       9.17048978  T       0.00000000       0.00000000       0.00000000       0.01636832      -0.02444655       0.00103505
O       12.17239045       6.66009757      12.15763346  T       0.00000000       0.00000000       0.00000000       0.01647155       0.00783616       0.01709549
O        0.00000448       1.35539672       6.10801283  F       0.00000000       0.00000000       0.00000000       0.00555053       0.00075937       0.05859730
O        0.00000331       4.05045002       6.10801189  F       0.00000000       0.00000000       0.00000000       0.00610741      -0.01361504       0.08976207
O        3.05359271       4.05438459       3.02679635  F       0.00000000       0.00000000       0.00000000       0.00010550       0.47116458       0.31121081
O        0.00000000       9.46023072       3.02679635  F       0.00000000       0.00000000       0.00000000       0.00025863       0.47173189       0.31309138
O        3.05359105       4.05044320       6.10802763  F       0.00000000       0.00000000       0.00000000      -0.00241385      -0.03452613       0.10937993
O        3.05359271       1.35146153       3.02679635  F       0.00000000       0.00000000       0.00000000       0.00007134      -0.47168477       0.31277649
O        3.05359652       1.35540103       6.10801944  F       0.00000000       0.00000000       0.00000000      -0.00097130       0.03108506       0.10208067
O        0.00000000       4.05438459       3.02679635  F       0.00000000       0.00000000       0.00000000       0.00027697       0.47114670       0.31385856
O        0.00000000       1.35146153       3.02679635  F       0.00000000       0.00000000       0.00000000       0.00013066      -0.47116785       0.31477774
Pd       7.63598492       5.36084792      12.01305641  T       0.00000000       0.00000000       0.00000000      -0.00012623       0.02556384      -0.01224791
Pd      10.67030740       5.35234463      12.00834735  T       0.00000000       0.00000000       0.00000000      -0.00301293      -0.00371364      -0.01888297
Pd       0.00000000       8.10876919       1.50000000  F       0.00000000       0.00000000       0.00000000      -0.00011928      -0.00001066      -0.90372170
Pd       9.15697215       8.07995178      10.76277567  T       0.00000000       0.00000000       0.00000000       0.01133375       0.01495080       0.00194144
Pd       1.52679635       0.00000000       3.02679635  F       0.00000000       0.00000000       0.00000000       0.00054048      -0.00033401       0.04878532
Pd       9.16077813       2.70292306       1.50000000  F       0.00000000       0.00000000       0.00000000      -0.00001025       0.00014578      -0.90417500
Pd      10.68757448       0.00000000       3.02679635  F       0.00000000       0.00000000       0.00000000       0.00025809      -0.00036701       0.04851751
Pd      10.68516009       5.39336702       9.13872263  T       0.00000000       0.00000000       0.00000000       0.00241891      -0.00707840      -0.01852724
Pd       1.52508402      -0.00068570      12.02430169  T       0.00000000       0.00000000       0.00000000      -0.00865697       0.02323438       0.01732013
Pd       9.16077900       2.70292450       4.56559698  F       0.00000000       0.00000000       0.00000000       0.00021688       0.00179176       0.10920507
Pd      10.68756280      10.81168006       6.11657659  F       0.00000000       0.00000000       0.00000000       0.00143257      -0.01174652      -0.03576424
Pd       9.16077776       8.10875607       4.56559406  F       0.00000000       0.00000000       0.00000000       0.00001530       0.00175608       0.11750822
Pd       1.52678677       0.00000067       6.11658292  F       0.00000000       0.00000000       0.00000000       0.00399798      -0.01208240      -0.04670066
Pd       9.16027926       8.10486738       7.64899732  T       0.00000000       0.00000000       0.00000000      -0.00250031      -0.01027177       0.00498153
Pd       9.16001968       2.69832087       7.64515469  T       0.00000000       0.00000000       0.00000000       0.00028829      -0.00574159       0.00115290
Pd      10.68972835      -0.01661184       9.13663697  T       0.00000000       0.00000000       0.00000000      -0.00196665      -0.00807724      -0.00302370
Pd       0.00000135       2.70292705       4.56560641  F       0.00000000       0.00000000       0.00000000       0.00001342       0.00174010       0.11893560
Pd       1.53082926      10.79816311       9.14548905  T       0.00000000       0.00000000       0.00000000      -0.01302446       0.00607631      -0.00693834
Pd       9.15709552       2.67132652      10.74730339  T       0.00000000       0.00000000       0.00000000       0.00167444       0.00722671       0.02068058
Pd       6.10549851       8.08973431      10.77832466  T       0.00000000       0.00000000       0.00000000      -0.00394901      -0.01182137      -0.00865740
Pd      10.68605475      10.78068005      12.01954059  T       0.00000000       0.00000000       0.00000000       0.00636792       0.01295830      -0.01182923
Pd       0.00331445       2.69915937       7.64906874  T       0.00000000       0.00000000       0.00000000       0.00143322       0.00584511      -0.00526866
Pd      10.68757280       5.40584816       6.11657764  F       0.00000000       0.00000000       0.00000000      -0.00015327      -0.00582339      -0.03873703
Pd       9.16077813       8.10876919       1.50000000  F       0.00000000       0.00000000       0.00000000      -0.00000001       0.00012970      -0.90408751
Pd      10.68757448       5.40584612       3.02679635  F       0.00000000       0.00000000       0.00000000       0.00026845       0.00001848       0.04811523
Pd      12.21926926       2.67549095      10.75443544  T       0.00000000       0.00000000       0.00000000       0.00146979      -0.01236561      -0.01711935
Pd       4.57873393      -0.00937519       9.14688356  T       0.00000000       0.00000000       0.00000000       0.00637823      -0.00217014       0.00439928
Pd       7.63397856       5.40585179       6.11657833  F       0.00000000       0.00000000       0.00000000       0.00094646      -0.00480908      -0.03682144
Pd       7.62722807       5.39500259       9.13790567  T       0.00000000       0.00000000       0.00000000       0.00134679      -0.00444270      -0.00301370
Pd       4.61402633       5.35846866      12.11029637  T       0.00000000       0.00000000       0.00000000      -0.01283974       0.02700984      -0.02813953
Pd       3.04687671       8.14656482      10.77528095  T       0.00000000       0.00000000       0.00000000      -0.00970193      -0.00046075      -0.00917646
Pd       4.58038906       0.00000000       3.02679635  F       0.00000000       0.00000000       0.00000000      -0.00045029      -0.00046688       0.04897401
Pd       4.57493560       5.40123077       9.15643057  T       0.00000000       0.00000000       0.00000000      -0.00122564       0.00819115       0.00465511
Pd       3.05416710       8.09666248       7.65496461  T       0.00000000       0.00000000       0.00000000      -0.00024993      -0.00988762      -0.00415717
Pd       3.05359494       2.70292824       4.56560681  F       0.00000000       0.00000000       0.00000000       0.00010777       0.00076400       0.13810588
Pd       3.05359271       2.70292306       1.50000000  F       0.00000000       0.00000000       0.00000000       0.00000427       0.00038464      -0.90295669
Pd       4.58039501       5.40584640       6.11658908  F       0.00000000       0.00000000       0.00000000      -0.00064116      -0.00645879      -0.04958369
Pd       4.58040505      10.81168838       6.11658203  F       0.00000000       0.00000000       0.00000000      -0.00239738      -0.01148156      -0.04401968
Pd       4.58038906       5.40584612       3.02679635  F       0.00000000       0.00000000       0.00000000       0.00027847      -0.00011716       0.05049980
Pd       3.05359271       8.10876919       1.50000000  F       0.00000000       0.00000000       0.00000000      -0.00003784      -0.00006586      -0.90330181
Pd       3.05193016       2.70115702       7.65666463  T       0.00000000       0.00000000       0.00000000       0.00453695       0.00761611       0.00712877
Pd       4.60405971       0.02077767      12.02918848  T       0.00000000       0.00000000       0.00000000       0.00321517      -0.00329534       0.00730577
Pd       3.04836556       2.70886151      10.78429136  T       0.00000000       0.00000000       0.00000000       0.01255036       0.00245330      -0.00879773
Pd       3.05359569       8.10876742       4.56559865  F       0.00000000       0.00000000       0.00000000       0.00053550       0.00619481       0.12629388
Pd       6.10718542       2.70292306       1.50000000  F       0.00000000       0.00000000       0.00000000       0.00014495       0.00023607      -0.90370177
Pd       7.63398177       0.00000000       3.02679635  F       0.00000000       0.00000000       0.00000000      -0.00025681      -0.00025339       0.04855672
Pd       1.48556540       5.35576194      12.08622376  T       0.00000000       0.00000000       0.00000000       0.02137156       0.04215537      -0.00960264
Pd       6.09901191       8.10363626       7.65394799  T       0.00000000       0.00000000       0.00000000       0.01564874       0.00534301       0.00216437
Pd       0.00000079       8.10876600       4.56559869  F       0.00000000       0.00000000       0.00000000      -0.00035863       0.00224864       0.12493436
Pd       6.10718651       8.10875952       4.56558968  F       0.00000000       0.00000000       0.00000000       0.00055812       0.00233715       0.12813640
Pd       1.52680247       5.40584247       6.11658534  F       0.00000000       0.00000000       0.00000000       0.00210201      -0.00789335      -0.05046005
Pd       7.63398177       5.40584612       3.02679635  F       0.00000000       0.00000000       0.00000000       0.00000411      -0.00010247       0.04812678
Pd       6.10718542       8.10876919       1.50000000  F       0.00000000       0.00000000       0.00000000       0.00017464      -0.00006153      -0.90359381
Pd       0.00222943       8.10388501       7.65265671  T       0.00000000       0.00000000       0.00000000       0.00011862       0.00624599      -0.00547975
Pd       7.64123678      10.78035998      12.02024810  T       0.00000000       0.00000000       0.00000000       0.00540553       0.01732508       0.00018100
Pd       6.10877808       2.68015882      10.75373086  T       0.00000000       0.00000000       0.00000000      -0.00892466       0.01349036      -0.00076171
Pd       1.52591369       5.40138267       9.15290200  T       0.00000000       0.00000000       0.00000000      -0.00294486       0.00317018      -0.00526034
Pd       7.63143206      -0.01647429       9.13558969  T       0.00000000       0.00000000       0.00000000       0.00571474      -0.00212879      -0.00043532
Pd       6.10428329       2.70032766       7.64828968  T       0.00000000       0.00000000       0.00000000      -0.01577366       0.00357842      -0.00345155
Pd      12.21023017       8.08269163      10.77357924  T       0.00000000       0.00000000       0.00000000      -0.00830047      -0.00510643      -0.00597193
Pd       7.63399583      10.81167532       6.11657540  F       0.00000000       0.00000000       0.00000000      -0.00239629      -0.01177266      -0.03431239
Pd       6.10718592       2.70292523       4.56558724  F       0.00000000       0.00000000       0.00000000       0.00000075       0.00091184       0.11784112
Pd       1.52679635       5.40584612       3.02679635  F       0.00000000       0.00000000       0.00000000      -0.00018189      -0.00027660       0.04960772
Pd       0.00000000       2.70292306       1.50000000  F       0.00000000       0.00000000       0.00000000      -0.00014626       0.00022400      -0.90369623
C        3.02916966       7.35402999      13.72750271  T       0.00000000       0.00000000       0.00000000      -0.02625536      -0.01481759      -0.03754303
O        3.97645944       7.26907002      14.48035304  T       0.00000000       0.00000000       0.00000000       0.03544275      -0.00965476      -0.01334138
O        1.82637760       7.89276069      13.93727976  T       0.00000000       0.00000000       0.00000000       0.00474147       0.01545944       0.01690987
C        1.68707084       8.77169397      15.09057122  T       0.00000000       0.00000000       0.00000000      -0.00603406      -0.01480368       0.00650354
H        1.82951747       8.20502631      16.02213099  T       0.00000000       0.00000000       0.00000000       0.01157283      -0.01240501       0.00296005
H        2.42609971       9.58494927      15.02007975  T       0.00000000       0.00000000       0.00000000      -0.00870298      -0.02990711       0.01270575
H        0.66565340       9.16119593      15.00873581  T       0.00000000       0.00000000       0.00000000      -0.00401814      -0.01314063      -0.00129618
