135
Lattice="12.21437083684855 0.0 7e-16 1.7e-15 10.811692246786171 7e-16 0.0 0.0 30.687574482242482" Properties=species:S:1:pos:R:3:move_mask:L:1:momenta:R:3:forces:R:3 idx=2528 E_MACE=-712.025292812957 d_min=2.571866600749186 d_reactive=3.968045002793889 rank=8278 dE_rel_meV=4104.562575117598 converged=T energy=-712.025292812957 stress="-0.00024676518847141504 -2.709187291553789e-05 9.572518907677643e-05 -2.709187291553789e-05 -0.0010293870611286712 -8.4997248345175e-05 9.572518907677643e-05 -8.4997248345175e-05 -0.0036367858534163498" pbc="T T T"
O        3.07309320       6.70290984      12.18123395  T       0.00000000       0.00000000       0.00000000       0.00559408       0.00030552       0.00005226
O        6.13764948       1.29833837      12.13922789  T       0.00000000       0.00000000       0.00000000       0.00945180       0.00134867      -0.00065941
O        6.15752112       4.11990164      12.12071315  T       0.00000000       0.00000000       0.00000000       0.01159995      -0.00067655      -0.00805648
O        6.10673909       1.35097589       9.16269220  T       0.00000000       0.00000000       0.00000000       0.00063426       0.01150347       0.00060690
O        6.11205234       4.05386016       9.16056702  T       0.00000000       0.00000000       0.00000000      -0.00098971      -0.01320910      -0.00153766
O        6.10718343       1.35539432       6.10801899  F       0.00000000       0.00000000       0.00000000      -0.00104487      -0.00006289       0.06285492
O        6.10718534       4.05045008       6.10801162  F       0.00000000       0.00000000       0.00000000       0.00352746      -0.00564105       0.06517802
O        6.10718542       1.35146153       3.02679635  F       0.00000000       0.00000000       0.00000000      -0.00009543      -0.47114087       0.31482440
O        6.10718542       4.05438459       3.02679635  F       0.00000000       0.00000000       0.00000000      -0.00012022       0.47120232       0.31476600
O        9.17166292       9.50253535      12.17532368  T       0.00000000       0.00000000       0.00000000       0.00986021      -0.01375473      -0.01177811
O        3.06681849       9.50636247      12.15994648  T       0.00000000       0.00000000       0.00000000       0.01374183       0.00560104      -0.00052790
O        3.05956658       6.75844512       9.17386852  T       0.00000000       0.00000000       0.00000000      -0.01031469       0.00735300      -0.00651016
O        3.05628693       9.45375827       9.17384411  T       0.00000000       0.00000000       0.00000000      -0.00462564      -0.00852244      -0.00398120
O        3.05359341       6.76124998       6.10801980  F       0.00000000       0.00000000       0.00000000       0.00480240       0.01887922       0.08700533
O        3.05359360       9.45629444       6.10802097  F       0.00000000       0.00000000       0.00000000       0.00188323      -0.02467377       0.09319622
O        3.05359271       6.75730765       3.02679635  F       0.00000000       0.00000000       0.00000000       0.00009776      -0.47130465       0.31326036
O        3.05359271       9.46023072       3.02679635  F       0.00000000       0.00000000       0.00000000       0.00005793       0.47131087       0.31315687
O        3.03558518       1.29679818      12.15965413  T       0.00000000       0.00000000       0.00000000       0.00639996       0.00498008      -0.00216540
O        6.10718542       9.46023072       3.02679635  F       0.00000000       0.00000000       0.00000000      -0.00003833       0.47143722       0.31334827
O        6.10718542       6.75730765       3.02679635  F       0.00000000       0.00000000       0.00000000      -0.00008760      -0.47143862       0.31346472
O        6.10718028       9.45628983       6.10801454  F       0.00000000       0.00000000       0.00000000      -0.00583609      -0.01821692       0.08622697
O        6.10718760       6.76124043       6.10802244  F       0.00000000       0.00000000       0.00000000      -0.00489188       0.01821372       0.08644193
O        9.16580552       6.76201281       9.16636626  T       0.00000000       0.00000000       0.00000000       0.00435456       0.00760143       0.00742476
O        9.16217111       9.45680461       9.16741376  T       0.00000000       0.00000000       0.00000000       0.00118035      -0.00887175       0.00276257
O        9.16078073       6.76123572       6.10801818  F       0.00000000       0.00000000       0.00000000       0.00089633       0.01552286       0.07432656
O        9.16078059       9.45627785       6.10801483  F       0.00000000       0.00000000       0.00000000      -0.00258293      -0.01102602       0.07208359
O        9.16077813       6.75730765       3.02679635  F       0.00000000       0.00000000       0.00000000       0.00009380      -0.47153512       0.31412642
O        9.16077813       9.46023072       3.02679635  F       0.00000000       0.00000000       0.00000000       0.00004922       0.47150586       0.31400369
O        9.16766383       1.30461433      12.16004200  T       0.00000000       0.00000000       0.00000000       0.00912610       0.00143371      -0.00196358
O        9.17378977       4.10364601      12.15632306  T       0.00000000       0.00000000       0.00000000       0.00433587       0.00188432      -0.00279291
O        3.03484882       4.10646755      12.15346063  T       0.00000000       0.00000000       0.00000000      -0.00856848      -0.00453050      -0.01619275
O        9.16254520       1.35204129       9.16342614  T       0.00000000       0.00000000       0.00000000      -0.00344859       0.00843674       0.00487329
O        9.16077827       1.35539012       6.10801450  F       0.00000000       0.00000000       0.00000000       0.00128997       0.00740991       0.06880212
O        9.16078421       4.05045012       6.10800209  F       0.00000000       0.00000000       0.00000000       0.00317993      -0.00782639       0.06834587
O        9.16077813       1.35146153       3.02679635  F       0.00000000       0.00000000       0.00000000       0.00013519      -0.47107220       0.31465770
O        9.16077813       4.05438459       3.02679635  F       0.00000000       0.00000000       0.00000000       0.00014469       0.47118176       0.31475899
O        6.11077087       6.70776511      12.17088787  T       0.00000000       0.00000000       0.00000000      -0.00836045       0.00299247       0.00997457
O        6.10749437       9.50751518      12.16812109  T       0.00000000       0.00000000       0.00000000       0.00085366       0.00102433       0.00423522
O        6.10617498       6.76062719       9.17192751  T       0.00000000       0.00000000       0.00000000       0.00601663       0.01090318      -0.00633755
O        6.10416605       9.45678716       9.17115274  T       0.00000000       0.00000000       0.00000000       0.00900165      -0.01256266      -0.00027486
O        9.16481472       4.05435758       9.16216370  T       0.00000000       0.00000000       0.00000000      -0.00116331      -0.01476130       0.00790927
O        3.05408891       1.35222442       9.16926045  T       0.00000000       0.00000000       0.00000000      -0.00057234       0.00819613      -0.00163868
O        9.18115797       6.71852027      12.17636480  T       0.00000000       0.00000000       0.00000000       0.00907940       0.01586702      -0.00739093
O       12.21237286       9.49921625      12.17774509  T       0.00000000       0.00000000       0.00000000       0.00143814      -0.00813370      -0.01311589
O        0.00000000       6.75730765       3.02679635  F       0.00000000       0.00000000       0.00000000       0.00012110      -0.47150016       0.31375334
O        3.05750902       4.04876854       9.17038102  T       0.00000000       0.00000000       0.00000000      -0.00132381      -0.01279341      -0.00491723
O        0.00661004       1.30271608      12.16528682  T       0.00000000       0.00000000       0.00000000      -0.00277061       0.00048670       0.00049373
O        0.00000951       9.45630243       6.10801529  F       0.00000000       0.00000000       0.00000000       0.00299716      -0.01815136       0.08297721
O       12.22356974       4.09888133      12.16142236  T       0.00000000       0.00000000       0.00000000      -0.00142401       0.00548850       0.00119210
O        0.00000182       6.76124509       6.10800952  F       0.00000000       0.00000000       0.00000000       0.00682232       0.01693885       0.07910705
O        0.00093150       9.45478599       9.17049032  T       0.00000000       0.00000000       0.00000000       0.00265928      -0.00473501      -0.00462760
O        0.00153281       1.35143050       9.16499976  T       0.00000000       0.00000000       0.00000000       0.00690891       0.00930764       0.01030835
O        0.00497018       6.75998546       9.16854668  T       0.00000000       0.00000000       0.00000000      -0.00215804       0.00857509       0.00050393
O       12.21735445       4.05109397       9.16532591  T       0.00000000       0.00000000       0.00000000       0.00424142      -0.00980917       0.00920293
O       12.21914920       6.71458705      12.17695402  T       0.00000000       0.00000000       0.00000000      -0.00353998       0.01886822      -0.00483679
O        0.00000448       1.35539672       6.10801283  F       0.00000000       0.00000000       0.00000000       0.00134987       0.00770308       0.07002858
O        0.00000331       4.05045002       6.10801189  F       0.00000000       0.00000000       0.00000000       0.00294152      -0.01199188       0.07437720
O        3.05359271       4.05438459       3.02679635  F       0.00000000       0.00000000       0.00000000       0.00011174       0.47124937       0.31382855
O        0.00000000       9.46023072       3.02679635  F       0.00000000       0.00000000       0.00000000       0.00005686       0.47142956       0.31362047
O        3.05359105       4.05044320       6.10802763  F       0.00000000       0.00000000       0.00000000       0.00172404      -0.01945485       0.08422259
O        3.05359271       1.35146153       3.02679635  F       0.00000000       0.00000000       0.00000000       0.00004827      -0.47117948       0.31400958
O        3.05359652       1.35540103       6.10801944  F       0.00000000       0.00000000       0.00000000      -0.00102089       0.01509072       0.07918801
O        0.00000000       4.05438459       3.02679635  F       0.00000000       0.00000000       0.00000000       0.00007811       0.47123325       0.31434219
O        0.00000000       1.35146153       3.02679635  F       0.00000000       0.00000000       0.00000000       0.00002368      -0.47116451       0.31438474
Pd       7.65629701       5.42076081      12.00645319  T       0.00000000       0.00000000       0.00000000      -0.01319248      -0.00908805      -0.00421168
Pd      10.70037663       5.40678752      12.02181719  T       0.00000000       0.00000000       0.00000000      -0.00081641       0.01133972      -0.01032143
Pd       0.00000000       8.10876919       1.50000000  F       0.00000000       0.00000000       0.00000000      -0.00007243       0.00003783      -0.90403690
Pd       9.17617114       8.10974903      10.76768821  T       0.00000000       0.00000000       0.00000000      -0.01030763       0.00329860       0.01017426
Pd       1.52679635       0.00000000       3.02679635  F       0.00000000       0.00000000       0.00000000       0.00003507      -0.00014040       0.04874686
Pd       9.16077813       2.70292306       1.50000000  F       0.00000000       0.00000000       0.00000000      -0.00002811      -0.00004070      -0.90427736
Pd      10.68757448       0.00000000       3.02679635  F       0.00000000       0.00000000       0.00000000       0.00004016      -0.00015615       0.04844775
Pd      10.69205353       5.40747215       9.13431277  T       0.00000000       0.00000000       0.00000000       0.00017360      -0.00685828       0.00991607
Pd       1.52766999      -0.01046835      12.02263681  T       0.00000000       0.00000000       0.00000000       0.00767615      -0.00158437      -0.01267526
Pd       9.16077900       2.70292450       4.56559698  F       0.00000000       0.00000000       0.00000000      -0.00004259      -0.00033422       0.11704637
Pd      10.68756280      10.81168006       6.11657659  F       0.00000000       0.00000000       0.00000000       0.00022387      -0.00314895      -0.03677585
Pd       9.16077776       8.10875607       4.56559406  F       0.00000000       0.00000000       0.00000000      -0.00063021      -0.00011968       0.12045882
Pd       1.52678677       0.00000067       6.11658292  F       0.00000000       0.00000000       0.00000000      -0.00029627      -0.00282161      -0.03505940
Pd       9.16167545       8.10929157       7.65004534  T       0.00000000       0.00000000       0.00000000       0.00335764      -0.00136457       0.00227809
Pd       9.16313236       2.70296295       7.64841531  T       0.00000000       0.00000000       0.00000000      -0.00327965      -0.00253301      -0.00019657
Pd      10.68903697      -0.00228007       9.13635949  T       0.00000000       0.00000000       0.00000000       0.00130039       0.00420020       0.00442376
Pd       0.00000135       2.70292705       4.56560641  F       0.00000000       0.00000000       0.00000000      -0.00032635       0.00031724       0.11854329
Pd       1.52777032      10.80804265       9.14124047  T       0.00000000       0.00000000       0.00000000       0.00649562       0.00114973      -0.01290812
Pd       9.16987647       2.70282904      10.75748890  T       0.00000000       0.00000000       0.00000000      -0.00039507       0.00062209      -0.00280259
Pd       6.10176314       8.10776150      10.76884376  T       0.00000000       0.00000000       0.00000000      -0.01037250      -0.01034757       0.00529525
Pd      10.69349406      10.81008522      12.02361137  T       0.00000000       0.00000000       0.00000000       0.00188760      -0.00207714      -0.01023254
Pd       0.00094100       2.70218288       7.64918623  T       0.00000000       0.00000000       0.00000000       0.00275573      -0.00081799       0.00337250
Pd      10.68757280       5.40584816       6.11657764  F       0.00000000       0.00000000       0.00000000      -0.00033738       0.00258711      -0.03642097
Pd       9.16077813       8.10876919       1.50000000  F       0.00000000       0.00000000       0.00000000       0.00002569       0.00003346      -0.90421965
Pd      10.68757448       5.40584612       3.02679635  F       0.00000000       0.00000000       0.00000000      -0.00001254       0.00012324       0.04848753
Pd      12.21708457       2.69987792      10.76098635  T       0.00000000       0.00000000       0.00000000       0.00043112       0.00410128       0.00146369
Pd       4.57937653      -0.00119185       9.14064401  T       0.00000000       0.00000000       0.00000000       0.00473535      -0.00366722      -0.01087298
Pd       7.63397856       5.40585179       6.11657833  F       0.00000000       0.00000000       0.00000000       0.00063246       0.00386253      -0.03489977
Pd       7.63784979       5.40986746       9.13469494  T       0.00000000       0.00000000       0.00000000       0.00032302      -0.00392866      -0.00854170
Pd       4.59317211       5.38330854      12.04002767  T       0.00000000       0.00000000       0.00000000       0.00177593       0.01203818       0.00511483
Pd       3.06779392       8.10108031      10.77028171  T       0.00000000       0.00000000       0.00000000       0.01110178      -0.00580626       0.00571810
Pd       4.58038906       0.00000000       3.02679635  F       0.00000000       0.00000000       0.00000000      -0.00014718      -0.00021730       0.04891325
Pd       4.58316618       5.40407439       9.14124236  T       0.00000000       0.00000000       0.00000000       0.00374377       0.00552249      -0.01090143
Pd       3.05684090       8.10761743       7.65287193  T       0.00000000       0.00000000       0.00000000      -0.00600747      -0.00270319      -0.00076976
Pd       3.05359494       2.70292824       4.56560681  F       0.00000000       0.00000000       0.00000000      -0.00083353       0.00073186       0.12329312
Pd       3.05359271       2.70292306       1.50000000  F       0.00000000       0.00000000       0.00000000       0.00000408       0.00001472      -0.90389177
Pd       4.58039501       5.40584640       6.11658908  F       0.00000000       0.00000000       0.00000000      -0.00259745       0.00229709      -0.03797768
Pd       4.58040505      10.81168838       6.11658203  F       0.00000000       0.00000000       0.00000000      -0.00277848      -0.00438098      -0.04294172
Pd       4.58038906       5.40584612       3.02679635  F       0.00000000       0.00000000       0.00000000      -0.00016088       0.00011904       0.04958660
Pd       3.05359271       8.10876919       1.50000000  F       0.00000000       0.00000000       0.00000000      -0.00001701       0.00001483      -0.90388340
Pd       3.05462653       2.70200857       7.65097897  T       0.00000000       0.00000000       0.00000000       0.00080043       0.00070383      -0.00044241
Pd       4.58664912       0.01790632      12.02397160  T       0.00000000       0.00000000       0.00000000      -0.01081028      -0.01466742       0.00250874
Pd       3.05170673       2.70029198      10.76832616  T       0.00000000       0.00000000       0.00000000      -0.00036141      -0.00983377      -0.00225247
Pd       3.05359569       8.10876742       4.56559865  F       0.00000000       0.00000000       0.00000000      -0.00048417       0.00039953       0.12714609
Pd       6.10718542       2.70292306       1.50000000  F       0.00000000       0.00000000       0.00000000       0.00003941      -0.00001172      -0.90417191
Pd       7.63398177       0.00000000       3.02679635  F       0.00000000       0.00000000       0.00000000      -0.00004044      -0.00011402       0.04833579
Pd       1.53200377       5.41217914      12.01999800  T       0.00000000       0.00000000       0.00000000       0.00841073      -0.00348767      -0.00736376
Pd       6.10335168       8.10863582       7.65222317  T       0.00000000       0.00000000       0.00000000       0.01268494      -0.00362142      -0.00186543
Pd       0.00000079       8.10876600       4.56559869  F       0.00000000       0.00000000       0.00000000       0.00037097       0.00030495       0.12414722
Pd       6.10718651       8.10875952       4.56558968  F       0.00000000       0.00000000       0.00000000       0.00007949      -0.00000946       0.12634534
Pd       1.52680247       5.40584247       6.11658534  F       0.00000000       0.00000000       0.00000000      -0.00097597       0.00036451      -0.03457167
Pd       7.63398177       5.40584612       3.02679635  F       0.00000000       0.00000000       0.00000000      -0.00009676       0.00006719       0.04820062
Pd       6.10718542       8.10876919       1.50000000  F       0.00000000       0.00000000       0.00000000       0.00007409       0.00001560      -0.90403068
Pd       0.00260979       8.10832184       7.65142972  T       0.00000000       0.00000000       0.00000000      -0.00175417       0.00092765      -0.00136153
Pd       7.64538773      10.80383576      12.01213797  T       0.00000000       0.00000000       0.00000000      -0.01902958       0.00676817      -0.00759264
Pd       6.12406725       2.70358957      10.75118438  T       0.00000000       0.00000000       0.00000000       0.00562575      -0.00507194      -0.00272469
Pd       1.53092230       5.40513867       9.14073960  T       0.00000000       0.00000000       0.00000000       0.00138347      -0.00090441      -0.01164951
Pd       7.63402249      -0.00251839       9.13803871  T       0.00000000       0.00000000       0.00000000       0.00012417      -0.00039241      -0.01017215
Pd       6.10834961       2.70229567       7.64719055  T       0.00000000       0.00000000       0.00000000      -0.00520542       0.00283477      -0.00031594
Pd      12.21168568       8.10701700      10.76943339  T       0.00000000       0.00000000       0.00000000       0.00973716       0.00382765       0.00785417
Pd       7.63399583      10.81167532       6.11657540  F       0.00000000       0.00000000       0.00000000       0.00085042      -0.00366944      -0.03367625
Pd       6.10718592       2.70292523       4.56558724  F       0.00000000       0.00000000       0.00000000       0.00025473       0.00055478       0.11452423
Pd       1.52679635       5.40584612       3.02679635  F       0.00000000       0.00000000       0.00000000      -0.00006548       0.00005712       0.04870244
Pd       0.00000000       2.70292306       1.50000000  F       0.00000000       0.00000000       0.00000000      -0.00002131      -0.00000660      -0.90410094
C        4.30919407       9.98355353      15.14603013  T       0.00000000       0.00000000       0.00000000      -0.00242012       0.01620839      -0.02225844
O        3.22023001       9.64292011      15.26717280  T       0.00000000       0.00000000       0.00000000      -0.00849619      -0.01378426       0.03397950
O        4.56788966       2.90821858      13.83527006  T       0.00000000       0.00000000       0.00000000      -0.01563827      -0.00752178      -0.01629773
C        4.16883833       2.72621434      15.13192120  T       0.00000000       0.00000000       0.00000000      -0.00771184       0.01203954      -0.00186628
H        5.05479990       2.59030876      15.80514429  T       0.00000000       0.00000000       0.00000000      -0.00059221      -0.00379807       0.01052444
H        3.58096284       3.59252147      15.52765851  T       0.00000000       0.00000000       0.00000000      -0.01411149       0.03045867       0.00280253
H        3.52292864       1.81890729      15.25342900  T       0.00000000       0.00000000       0.00000000      -0.03062082      -0.00163769       0.01027849
