135
Lattice="12.21437083684855 0.0 7e-16 1.7e-15 10.811692246786171 7e-16 0.0 0.0 30.687574482242482" Properties=species:S:1:pos:R:3:move_mask:L:1:momenta:R:3:forces:R:3 idx=231 E_MACE=-711.928129822234 d_min=2.221710069997422 d_reactive=3.067177255074799 rank=8280 dE_rel_meV=4201.7255658405475 converged=F energy=-711.928129822234 stress="-0.0006661516028352594 7.520399402754981e-05 0.00014845404617759927 7.520399402754981e-05 -0.0017595576862105972 -3.231372128041522e-05 0.00014845404617759927 -3.231372128041522e-05 -0.004472629425686663" pbc="T T T"
O        3.12084467       6.69330743      12.02148071  T       0.00000000       0.00000000       0.00000000      -0.04936041       0.05049761       0.04691014
O        6.13365519       1.32379103      12.18284008  T       0.00000000       0.00000000       0.00000000       0.00328959       0.00140064      -0.02253154
O        6.14990029       4.09476452      12.18965275  T       0.00000000       0.00000000       0.00000000       0.01371134      -0.00122137      -0.08027469
O        6.11555675       1.36194081       9.16505615  T       0.00000000       0.00000000       0.00000000       0.01110791       0.01641529      -0.00798091
O        6.11747952       4.05216898       9.16263822  T       0.00000000       0.00000000       0.00000000       0.02976195      -0.01104188      -0.00694951
O        6.10718343       1.35539432       6.10801899  F       0.00000000       0.00000000       0.00000000      -0.00215227       0.01220320       0.05865217
O        6.10718534       4.05045008       6.10801162  F       0.00000000       0.00000000       0.00000000      -0.00255893      -0.00242981       0.04825934
O        6.10718542       1.35146153       3.02679635  F       0.00000000       0.00000000       0.00000000       0.00040955      -0.47121176       0.31522744
O        6.10718542       4.05438459       3.02679635  F       0.00000000       0.00000000       0.00000000       0.00047934       0.47129559       0.31525920
O        9.17363930       9.51379505      12.14670204  T       0.00000000       0.00000000       0.00000000       0.02182295       0.03847489      -0.05424012
O        3.10313491       9.54030601      12.06242039  T       0.00000000       0.00000000       0.00000000      -0.09987636      -0.11661582      -0.01152412
O        3.06796386       6.75553630       9.12169233  T       0.00000000       0.00000000       0.00000000      -0.00164882      -0.01836867       0.00418112
O        3.05948798       9.48380608       9.11686298  T       0.00000000       0.00000000       0.00000000       0.00847894      -0.06962771       0.01673653
O        3.05359341       6.76124998       6.10801980  F       0.00000000       0.00000000       0.00000000       0.00291836      -0.07141338      -0.03590478
O        3.05359360       9.45629444       6.10802097  F       0.00000000       0.00000000       0.00000000      -0.00496407       0.08826419      -0.06599581
O        3.05359271       6.75730765       3.02679635  F       0.00000000       0.00000000       0.00000000       0.00027310      -0.46987449       0.32186859
O        3.05359271       9.46023072       3.02679635  F       0.00000000       0.00000000       0.00000000       0.00025068       0.46975825       0.32260527
O        3.06477235       1.31245650      12.17157818  T       0.00000000       0.00000000       0.00000000       0.03400553       0.02013839      -0.11128482
O        6.10718542       9.46023072       3.02679635  F       0.00000000       0.00000000       0.00000000       0.00049189       0.47009190       0.31725480
O        6.10718542       6.75730765       3.02679635  F       0.00000000       0.00000000       0.00000000       0.00060435      -0.47032547       0.31685264
O        6.10718028       9.45628983       6.10801454  F       0.00000000       0.00000000       0.00000000       0.01111884       0.00577209       0.04027939
O        6.10718760       6.76124043       6.10802244  F       0.00000000       0.00000000       0.00000000       0.01612504      -0.00686964       0.04553614
O        9.17167405       6.75667968       9.15674541  T       0.00000000       0.00000000       0.00000000      -0.00580596       0.02409343      -0.01988737
O        9.16392169       9.46375437       9.15426454  T       0.00000000       0.00000000       0.00000000      -0.00447131      -0.02154367      -0.02013701
O        9.16078073       6.76123572       6.10801818  F       0.00000000       0.00000000       0.00000000       0.00048528      -0.00607022       0.04759698
O        9.16078059       9.45627785       6.10801483  F       0.00000000       0.00000000       0.00000000      -0.00674092       0.00598193       0.04504654
O        9.16077813       6.75730765       3.02679635  F       0.00000000       0.00000000       0.00000000       0.00000507      -0.47035126       0.31644864
O        9.16077813       9.46023072       3.02679635  F       0.00000000       0.00000000       0.00000000      -0.00014775       0.47043812       0.31669481
O        9.15137780       1.33395266      12.19521824  T       0.00000000       0.00000000       0.00000000       0.02038511      -0.02720962      -0.06735792
O        9.18927615       4.10074228      12.18595323  T       0.00000000       0.00000000       0.00000000      -0.02122872       0.00583300      -0.05221966
O        3.09024923       4.08641757      12.11595481  T       0.00000000       0.00000000       0.00000000       0.01521393       0.12120255       0.00150257
O        9.16093821       1.36129615       9.17007126  T       0.00000000       0.00000000       0.00000000       0.00504397       0.00961362      -0.01888647
O        9.16077827       1.35539012       6.10801450  F       0.00000000       0.00000000       0.00000000       0.00528074       0.01485795       0.07002436
O        9.16078421       4.05045012       6.10800209  F       0.00000000       0.00000000       0.00000000       0.01572551      -0.01005813       0.05989048
O        9.16077813       1.35146153       3.02679635  F       0.00000000       0.00000000       0.00000000      -0.00008159      -0.47124869       0.31471290
O        9.16077813       4.05438459       3.02679635  F       0.00000000       0.00000000       0.00000000       0.00012572       0.47129867       0.31464262
O        6.14632207       6.71653792      12.14932679  T       0.00000000       0.00000000       0.00000000      -0.03693632      -0.02181155      -0.06433222
O        6.12550738       9.51091364      12.14250712  T       0.00000000       0.00000000       0.00000000      -0.01850459       0.02961009      -0.03960115
O        6.11966391       6.75620007       9.15454836  T       0.00000000       0.00000000       0.00000000       0.01235292       0.03031708      -0.02503087
O        6.11216593       9.46547811       9.15169855  T       0.00000000       0.00000000       0.00000000       0.00883189      -0.01719335      -0.01943615
O        9.17161000       4.05206805       9.16528993  T       0.00000000       0.00000000       0.00000000       0.00243719      -0.00345639      -0.01713764
O        3.05402947       1.35633213       9.15529481  T       0.00000000       0.00000000       0.00000000       0.03474564       0.01247914      -0.03386665
O        9.19190987       6.71700028      12.15055510  T       0.00000000       0.00000000       0.00000000       0.01888736       0.00119327      -0.03218002
O       12.19244786       9.54755756      12.06041199  T       0.00000000       0.00000000       0.00000000       0.05017412      -0.03703351       0.01121895
O        0.00000000       6.75730765       3.02679635  F       0.00000000       0.00000000       0.00000000      -0.00018637      -0.47004319       0.31963986
O        3.06551229       4.05405327       9.15765821  T       0.00000000       0.00000000       0.00000000       0.00115110      -0.01006994      -0.07648405
O        0.01945083       1.31136017      12.17010331  T       0.00000000       0.00000000       0.00000000      -0.01614687       0.02396854      -0.05402503
O        0.00000951       9.45630243       6.10801529  F       0.00000000       0.00000000       0.00000000       0.00009759       0.03642288      -0.00516930
O       12.25627126       4.10523643      12.17031042  T       0.00000000       0.00000000       0.00000000      -0.05239262       0.00168043       0.01502810
O        0.00000182       6.76124509       6.10800952  F       0.00000000       0.00000000       0.00000000       0.01157739      -0.04412045      -0.00093889
O        0.00059733       9.46695269       9.13318199  T       0.00000000       0.00000000       0.00000000      -0.02368644      -0.00257815       0.00792286
O       -0.00070867       1.36007329       9.16662969  T       0.00000000       0.00000000       0.00000000      -0.01675957       0.03306074      -0.01122582
O        0.01191579       6.75545505       9.14310702  T       0.00000000       0.00000000       0.00000000      -0.01762028       0.00402248      -0.02569131
O       12.22631281       4.05419485       9.16554795  T       0.00000000       0.00000000       0.00000000      -0.01785954      -0.02656236      -0.03667531
O       12.23437969       6.71834079      12.11428239  T       0.00000000       0.00000000       0.00000000      -0.02195064      -0.04273903      -0.02081798
O        0.00000448       1.35539672       6.10801283  F       0.00000000       0.00000000       0.00000000      -0.00527629       0.01222954       0.06715496
O        0.00000331       4.05045002       6.10801189  F       0.00000000       0.00000000       0.00000000       0.00668251      -0.00066055       0.05469690
O        3.05359271       4.05438459       3.02679635  F       0.00000000       0.00000000       0.00000000       0.00017151       0.47093905       0.31648255
O        0.00000000       9.46023072       3.02679635  F       0.00000000       0.00000000       0.00000000      -0.00018445       0.47003394       0.31993877
O        3.05359105       4.05044320       6.10802763  F       0.00000000       0.00000000       0.00000000       0.00486226       0.01865012       0.03656943
O        3.05359271       1.35146153       3.02679635  F       0.00000000       0.00000000       0.00000000       0.00016735      -0.47065808       0.31674941
O        3.05359652       1.35540103       6.10801944  F       0.00000000       0.00000000       0.00000000      -0.00513693      -0.00337056       0.04414077
O        0.00000000       4.05438459       3.02679635  F       0.00000000       0.00000000       0.00000000      -0.00008761       0.47099223       0.31497546
O        0.00000000       1.35146153       3.02679635  F       0.00000000       0.00000000       0.00000000      -0.00009030      -0.47085556       0.31512933
Pd       7.66866931       5.40756900      12.01502300  T       0.00000000       0.00000000       0.00000000       0.03077988      -0.00676270       0.04539649
Pd      10.71910280       5.40274422      12.01448476  T       0.00000000       0.00000000       0.00000000      -0.01313737       0.03437992      -0.02551821
Pd       0.00000000       8.10876919       1.50000000  F       0.00000000       0.00000000       0.00000000       0.00010700      -0.00011276      -0.90625315
Pd       9.17461515       8.11171453      10.74316686  T       0.00000000       0.00000000       0.00000000      -0.00879332       0.00386501       0.10817838
Pd       1.52679635       0.00000000       3.02679635  F       0.00000000       0.00000000       0.00000000      -0.00047762       0.00039628       0.04742478
Pd       9.16077813       2.70292306       1.50000000  F       0.00000000       0.00000000       0.00000000      -0.00006401      -0.00002454      -0.90532864
Pd      10.68757448       0.00000000       3.02679635  F       0.00000000       0.00000000       0.00000000      -0.00056495       0.00064330       0.04745194
Pd      10.69826947       5.40400485       9.12597405  T       0.00000000       0.00000000       0.00000000      -0.00732685       0.00036270       0.02265947
Pd       1.54525882       0.00580433      11.97295534  T       0.00000000       0.00000000       0.00000000       0.00014195       0.02092730       0.06666558
Pd       9.16077900       2.70292450       4.56559698  F       0.00000000       0.00000000       0.00000000       0.00014024      -0.00049185       0.11603740
Pd      10.68756280      10.81168006       6.11657659  F       0.00000000       0.00000000       0.00000000      -0.00820981       0.01126069      -0.03795705
Pd       9.16077776       8.10875607       4.56559406  F       0.00000000       0.00000000       0.00000000      -0.00105055      -0.00021810       0.10515171
Pd       1.52678677       0.00000067       6.11658292  F       0.00000000       0.00000000       0.00000000      -0.00710672       0.01986639      -0.04785419
Pd       9.16068919       8.10908769       7.64436657  T       0.00000000       0.00000000       0.00000000       0.01371889       0.00018409       0.00968994
Pd       9.16748893       2.70408596       7.64958640  T       0.00000000       0.00000000       0.00000000      -0.02806957      -0.00265940       0.01718034
Pd      10.68734587       0.00818215       9.12092997  T       0.00000000       0.00000000       0.00000000      -0.00152225       0.00131669       0.02188152
Pd       0.00000135       2.70292705       4.56560641  F       0.00000000       0.00000000       0.00000000      -0.00062537      -0.00040064       0.11144953
Pd       1.52478781      10.82367024       9.11276849  T       0.00000000       0.00000000       0.00000000       0.01483758      -0.01757412       0.00535641
Pd       9.15868412       2.71275825      10.77040198  T       0.00000000       0.00000000       0.00000000       0.03949362      -0.00175531       0.08779579
Pd       6.12429496       8.11149119      10.74198820  T       0.00000000       0.00000000       0.00000000       0.02792487       0.00708382       0.07580638
Pd      10.67680553      10.85252637      11.98959930  T       0.00000000       0.00000000       0.00000000       0.05182526      -0.05361938       0.05324515
Pd       0.00218000       2.70461258       7.64868256  T       0.00000000       0.00000000       0.00000000      -0.00072258       0.00083810       0.01350317
Pd      10.68757280       5.40584816       6.11657764  F       0.00000000       0.00000000       0.00000000      -0.00883359      -0.00718919      -0.03294893
Pd       9.16077813       8.10876919       1.50000000  F       0.00000000       0.00000000       0.00000000       0.00015811      -0.00004097      -0.90547587
Pd      10.68757448       5.40584612       3.02679635  F       0.00000000       0.00000000       0.00000000      -0.00080282      -0.00058580       0.04804213
Pd      12.22498908       2.71043175      10.76479804  T       0.00000000       0.00000000       0.00000000       0.03746028      -0.03388249       0.05858116
Pd       4.58824559       0.01433299       9.10968549  T       0.00000000       0.00000000       0.00000000      -0.00197225      -0.01920524       0.04459712
Pd       7.63397856       5.40585179       6.11657833  F       0.00000000       0.00000000       0.00000000      -0.00149311      -0.00435218      -0.03837958
Pd       7.64538635       5.40330188       9.12877926  T       0.00000000       0.00000000       0.00000000       0.00544189       0.01338903       0.01696211
Pd       4.63160609       5.39343854      11.97139884  T       0.00000000       0.00000000       0.00000000      -0.00009774      -0.00899618       0.03021801
Pd       3.10491724       8.12372050      10.67875757  T       0.00000000       0.00000000       0.00000000      -0.09139976      -0.00084561       0.19743470
Pd       4.58038906       0.00000000       3.02679635  F       0.00000000       0.00000000       0.00000000       0.00050223       0.00062678       0.04689932
Pd       4.59392484       5.40338945       9.11607465  T       0.00000000       0.00000000       0.00000000       0.01124520      -0.00121988       0.00906668
Pd       3.05534357       8.11211284       7.62460863  T       0.00000000       0.00000000       0.00000000       0.01831772       0.01791020       0.04459059
Pd       3.05359494       2.70292824       4.56560681  F       0.00000000       0.00000000       0.00000000      -0.00057624      -0.00078113       0.10101725
Pd       3.05359271       2.70292306       1.50000000  F       0.00000000       0.00000000       0.00000000       0.00000931       0.00001284      -0.90615027
Pd       4.58039501       5.40584640       6.11658908  F       0.00000000       0.00000000       0.00000000       0.00860123      -0.00956175      -0.03966556
Pd       4.58040505      10.81168838       6.11658203  F       0.00000000       0.00000000       0.00000000       0.01002010       0.01604244      -0.03650066
Pd       4.58038906       5.40584612       3.02679635  F       0.00000000       0.00000000       0.00000000       0.00020400      -0.00049349       0.04671569
Pd       3.05359271       8.10876919       1.50000000  F       0.00000000       0.00000000       0.00000000      -0.00002025      -0.00012110      -0.90682969
Pd       3.05469493       2.70488152       7.64425725  T       0.00000000       0.00000000       0.00000000       0.00789435      -0.00311274      -0.00478201
Pd       4.61144964       0.02535611      11.99034919  T       0.00000000       0.00000000       0.00000000      -0.02145386      -0.00652627       0.02405448
Pd       3.07654300       2.69719566      10.74465764  T       0.00000000       0.00000000       0.00000000      -0.03765535      -0.10628775       0.00289863
Pd       3.05359569       8.10876742       4.56559865  F       0.00000000       0.00000000       0.00000000      -0.00064961      -0.00134547       0.05451102
Pd       6.10718542       2.70292306       1.50000000  F       0.00000000       0.00000000       0.00000000      -0.00003054      -0.00002743      -0.90572995
Pd       7.63398177       0.00000000       3.02679635  F       0.00000000       0.00000000       0.00000000       0.00006063       0.00028976       0.04862590
Pd       1.56185184       5.41212824      11.95940416  T       0.00000000       0.00000000       0.00000000       0.10983534       0.09183983       0.17110354
Pd       6.11596398       8.10925229       7.64380696  T       0.00000000       0.00000000       0.00000000      -0.01016408       0.00804220       0.00390000
Pd       0.00000079       8.10876600       4.56559869  F       0.00000000       0.00000000       0.00000000      -0.00095530      -0.00040365       0.07663248
Pd       6.10718651       8.10875952       4.56558968  F       0.00000000       0.00000000       0.00000000      -0.00018491       0.00006781       0.10427143
Pd       1.52680247       5.40584247       6.11658534  F       0.00000000       0.00000000       0.00000000      -0.00750528      -0.01381225      -0.04366320
Pd       7.63398177       5.40584612       3.02679635  F       0.00000000       0.00000000       0.00000000      -0.00006994      -0.00022673       0.04808826
Pd       6.10718542       8.10876919       1.50000000  F       0.00000000       0.00000000       0.00000000      -0.00025692      -0.00003312      -0.90575442
Pd       0.00591141       8.10891794       7.63395652  T       0.00000000       0.00000000       0.00000000      -0.02382040       0.00052960       0.01999828
Pd       7.64600014      10.82098208      12.01410512  T       0.00000000       0.00000000       0.00000000       0.02306832       0.02604328       0.03533592
Pd       6.13764603       2.71087672      10.76739474  T       0.00000000       0.00000000       0.00000000      -0.01435611      -0.01567014       0.09039910
Pd       1.53811877       5.40511341       9.11844421  T       0.00000000       0.00000000       0.00000000       0.00149107      -0.00677803       0.03307922
Pd       7.63808725       0.00664065       9.13026308  T       0.00000000       0.00000000       0.00000000       0.00350002      -0.00468007       0.01277179
Pd       6.10762275       2.70456067       7.64761809  T       0.00000000       0.00000000       0.00000000       0.03861372      -0.00297738       0.01482572
Pd      12.20431627       8.11284500      10.71763352  T       0.00000000       0.00000000       0.00000000       0.05804156      -0.02866906       0.02277411
Pd       7.63399583      10.81167532       6.11657540  F       0.00000000       0.00000000       0.00000000      -0.00008901       0.00801787      -0.03707356
Pd       6.10718592       2.70292523       4.56558724  F       0.00000000       0.00000000       0.00000000      -0.00107163      -0.00072083       0.11100221
Pd       1.52679635       5.40584612       3.02679635  F       0.00000000       0.00000000       0.00000000      -0.00041965      -0.00029413       0.04626997
Pd       0.00000000       2.70292306       1.50000000  F       0.00000000       0.00000000       0.00000000       0.00010476       0.00001357      -0.90576005
C        2.45960454       5.26046672      14.63335164  T       0.00000000       0.00000000       0.00000000      -0.57319632       0.19660975       1.75898426
O        2.13259274       5.31794568      15.75244142  T       0.00000000       0.00000000       0.00000000       0.45748456      -0.13240818      -1.66109586
O        1.60600438       8.13107905      13.97113720  T       0.00000000       0.00000000       0.00000000       0.51878003      -0.19780280      -0.26175493
C        0.60318816       8.65341479      14.67819359  T       0.00000000       0.00000000       0.00000000      -0.59753519      -0.00480640       0.62715447
H        0.35172727       8.01169782      15.57761571  T       0.00000000       0.00000000       0.00000000       0.09297826       0.14766116      -0.12790354
H        0.80141244       9.70154177      15.04438240  T       0.00000000       0.00000000       0.00000000      -0.06245203      -0.07886349      -0.03642988
H       -0.36091698       8.68942677      14.08147365  T       0.00000000       0.00000000       0.00000000       0.01455330       0.10152273       0.01508679
