135
Lattice="12.21437083684855 0.0 7e-16 1.7e-15 10.811692246786171 7e-16 0.0 0.0 30.687574482242482" Properties=species:S:1:pos:R:3:move_mask:L:1:momenta:R:3:forces:R:3 idx=7670 E_MACE=-713.2088702116883 d_min=1.996124312314042 d_reactive=2.847247181197404 rank=4142 dE_rel_meV=2920.985176386239 converged=T energy=-713.2088702116883 stress="-0.00014740049865235097 -4.910393964874455e-06 -8.668243668760587e-05 -4.910393964874455e-06 -0.0012222055626056536 4.3945618105232565e-05 -8.668243668760587e-05 4.3945618105232565e-05 -0.003810719929560876" pbc="T T T"
O        3.03513827       6.69882655      12.14982454  T       0.00000000       0.00000000       0.00000000      -0.01940723       0.01272259       0.02660378
O        6.06922569       1.29755697      12.16932424  T       0.00000000       0.00000000       0.00000000       0.01264014      -0.01293447      -0.00013634
O        6.08648707       4.08876502      12.16991018  T       0.00000000       0.00000000       0.00000000      -0.01344066       0.01104373       0.00731500
O        6.07750615       1.35354661       9.16684776  T       0.00000000       0.00000000       0.00000000      -0.00789807      -0.01141829       0.00050815
O        6.08472271       4.04473262       9.16866147  T       0.00000000       0.00000000       0.00000000       0.00526854       0.03242346       0.00714348
O        6.10718343       1.35539432       6.10801899  F       0.00000000       0.00000000       0.00000000      -0.01481618       0.00821938       0.06358761
O        6.10718534       4.05045008       6.10801162  F       0.00000000       0.00000000       0.00000000      -0.00617203      -0.01317967       0.07208788
O        6.10718542       1.35146153       3.02679635  F       0.00000000       0.00000000       0.00000000      -0.00051194      -0.47167369       0.31424902
O        6.10718542       4.05438459       3.02679635  F       0.00000000       0.00000000       0.00000000      -0.00039484       0.47148352       0.31407270
O        9.12826696       9.50677972      12.16679387  T       0.00000000       0.00000000       0.00000000      -0.00239727      -0.00702367       0.00384187
O        3.01669987       9.49512313      12.16879901  T       0.00000000       0.00000000       0.00000000       0.00867043       0.02222822      -0.00549492
O        3.03337435       6.76007863       9.15828739  T       0.00000000       0.00000000       0.00000000      -0.00929058      -0.01336854       0.02946140
O        3.02001502       9.45877902       9.16398178  T       0.00000000       0.00000000       0.00000000       0.03309469      -0.00650027       0.00743174
O        3.05359341       6.76124998       6.10801980  F       0.00000000       0.00000000       0.00000000      -0.00748479       0.00886494       0.06149482
O        3.05359360       9.45629444       6.10802097  F       0.00000000       0.00000000       0.00000000      -0.01664431       0.00504159       0.05383312
O        3.05359271       6.75730765       3.02679635  F       0.00000000       0.00000000       0.00000000      -0.00036665      -0.47130280       0.31504243
O        3.05359271       9.46023072       3.02679635  F       0.00000000       0.00000000       0.00000000      -0.00040593       0.47127744       0.31527730
O        3.02262630       1.29407942      12.16090414  T       0.00000000       0.00000000       0.00000000      -0.00397392       0.00060904       0.00377691
O        6.10718542       9.46023072       3.02679635  F       0.00000000       0.00000000       0.00000000      -0.00053535       0.47128556       0.31436682
O        6.10718542       6.75730765       3.02679635  F       0.00000000       0.00000000       0.00000000      -0.00044689      -0.47154384       0.31407967
O        6.10718028       9.45628983       6.10801454  F       0.00000000       0.00000000       0.00000000      -0.01358405      -0.01257542       0.07111246
O        6.10718760       6.76124043       6.10802244  F       0.00000000       0.00000000       0.00000000      -0.00826985       0.01075616       0.06787770
O        9.13263481       6.76025060       9.17413465  T       0.00000000       0.00000000       0.00000000      -0.00170133       0.00169155       0.01815535
O        9.12911425       9.46109345       9.15836834  T       0.00000000       0.00000000       0.00000000       0.00388067      -0.00848556       0.00567746
O        9.16078073       6.76123572       6.10801818  F       0.00000000       0.00000000       0.00000000      -0.00605267      -0.01807769       0.06729318
O        9.16078059       9.45627785       6.10801483  F       0.00000000       0.00000000       0.00000000      -0.01462579      -0.02659422       0.07488754
O        9.16077813       6.75730765       3.02679635  F       0.00000000       0.00000000       0.00000000      -0.00019087      -0.47116402       0.31448453
O        9.16077813       9.46023072       3.02679635  F       0.00000000       0.00000000       0.00000000      -0.00070020       0.47037987       0.31608726
O        9.12238680       1.30710646      12.16788732  T       0.00000000       0.00000000       0.00000000      -0.00407990      -0.00319160      -0.01278563
O        9.13169582       4.09708611      12.15863188  T       0.00000000       0.00000000       0.00000000      -0.02345932      -0.00714223       0.02894590
O        3.03049938       4.08797722      12.16789350  T       0.00000000       0.00000000       0.00000000      -0.02112283       0.00600678      -0.00056383
O        9.12584197       1.35381277       9.16586572  T       0.00000000       0.00000000       0.00000000       0.01861900       0.01468869       0.00070737
O        9.16077827       1.35539012       6.10801450  F       0.00000000       0.00000000       0.00000000      -0.01656010       0.03625520       0.09149684
O        9.16078421       4.05045012       6.10800209  F       0.00000000       0.00000000       0.00000000      -0.00031291       0.00433371       0.08393273
O        9.16077813       1.35146153       3.02679635  F       0.00000000       0.00000000       0.00000000      -0.00067211      -0.47075409       0.31474406
O        9.16077813       4.05438459       3.02679635  F       0.00000000       0.00000000       0.00000000      -0.00011172       0.47117908       0.31333915
O        6.07990369       6.70169392      12.16171168  T       0.00000000       0.00000000       0.00000000      -0.01546380      -0.00002375       0.01680837
O        6.07640729       9.49474155      12.18008389  T       0.00000000       0.00000000       0.00000000       0.00165404       0.03193197      -0.01236503
O        6.08132482       6.76121739       9.16608300  T       0.00000000       0.00000000       0.00000000       0.02180996      -0.02264986       0.00904857
O        6.07725494       9.45342484       9.16951288  T       0.00000000       0.00000000       0.00000000      -0.00471974       0.01649885       0.00276594
O        9.13781215       4.05288335       9.18160902  T       0.00000000       0.00000000       0.00000000      -0.01749247       0.00619197       0.00602581
O        3.02342378       1.35547501       9.16349595  T       0.00000000       0.00000000       0.00000000       0.01910854      -0.01529014       0.00454014
O        9.11319461       6.72878969      12.14546077  T       0.00000000       0.00000000       0.00000000      -0.00015281      -0.01998637       0.01349474
O       12.17723219       9.50517996      12.14969822  T       0.00000000       0.00000000       0.00000000       0.01285531      -0.00534970       0.03064037
O        0.00000000       6.75730765       3.02679635  F       0.00000000       0.00000000       0.00000000      -0.00102352      -0.47094229       0.31568274
O        3.02944380       4.04986488       9.16565418  T       0.00000000       0.00000000       0.00000000       0.00628563      -0.00164994       0.01383759
O       -0.03122270       1.30349561      12.15908483  T       0.00000000       0.00000000       0.00000000       0.01404848       0.00226819      -0.02370280
O        0.00000951       9.45630243       6.10801529  F       0.00000000       0.00000000       0.00000000      -0.02251969      -0.00490689       0.05089633
O       12.19983781       4.09493440      12.14758603  T       0.00000000       0.00000000       0.00000000       0.01949818      -0.01566168       0.02729108
O        0.00000182       6.76124509       6.10800952  F       0.00000000       0.00000000       0.00000000      -0.01769194      -0.02514699       0.05353842
O       -0.03302239       9.46524092       9.15028446  T       0.00000000       0.00000000       0.00000000       0.01659032      -0.00788601       0.00948372
O       -0.03394616       1.35412643       9.16055361  T       0.00000000       0.00000000       0.00000000       0.01522433       0.00568488      -0.00006045
O       -0.02237397       6.75946525       9.16525319  T       0.00000000       0.00000000       0.00000000       0.00865582      -0.01068258       0.01851974
O       12.18728198       4.05527525       9.17747334  T       0.00000000       0.00000000       0.00000000       0.01792421      -0.00054131       0.00842785
O       12.22070297       6.73028575      12.13029130  T       0.00000000       0.00000000       0.00000000      -0.00783319      -0.00893032       0.00708073
O        0.00000448       1.35539672       6.10801283  F       0.00000000       0.00000000       0.00000000      -0.02627692       0.03461323       0.08457112
O        0.00000331       4.05045002       6.10801189  F       0.00000000       0.00000000       0.00000000      -0.02586248       0.01992021       0.06660975
O        3.05359271       4.05438459       3.02679635  F       0.00000000       0.00000000       0.00000000      -0.00043991       0.47153218       0.31457311
O        0.00000000       9.46023072       3.02679635  F       0.00000000       0.00000000       0.00000000      -0.00066869       0.47041631       0.31728873
O        3.05359105       4.05044320       6.10802763  F       0.00000000       0.00000000       0.00000000      -0.01486589      -0.00116154       0.06157179
O        3.05359271       1.35146153       3.02679635  F       0.00000000       0.00000000       0.00000000      -0.00041913      -0.47144931       0.31472121
O        3.05359652       1.35540103       6.10801944  F       0.00000000       0.00000000       0.00000000      -0.01785629       0.01413220       0.06773235
O        0.00000000       4.05438459       3.02679635  F       0.00000000       0.00000000       0.00000000      -0.00101609       0.47128213       0.31399919
O        0.00000000       1.35146153       3.02679635  F       0.00000000       0.00000000       0.00000000      -0.00064892      -0.47069624       0.31540800
Pd       7.60528873       5.40080766      12.01927253  T       0.00000000       0.00000000       0.00000000       0.02860241      -0.02118408      -0.01125631
Pd      10.66715497       5.42423130      12.09197307  T       0.00000000       0.00000000       0.00000000      -0.01429080      -0.01526603      -0.00274592
Pd       0.00000000       8.10876919       1.50000000  F       0.00000000       0.00000000       0.00000000       0.00013147      -0.00034996      -0.90399079
Pd       9.12325845       8.12141289      10.74968671  T       0.00000000       0.00000000       0.00000000       0.01062946       0.00276621      -0.00697029
Pd       1.52679635       0.00000000       3.02679635  F       0.00000000       0.00000000       0.00000000       0.00092872       0.00022385       0.04839711
Pd       9.16077813       2.70292306       1.50000000  F       0.00000000       0.00000000       0.00000000      -0.00006374       0.00033629      -0.90360544
Pd      10.68757448       0.00000000       3.02679635  F       0.00000000       0.00000000       0.00000000       0.00089478       0.00024571       0.04876535
Pd      10.66189085       5.40688892       9.18749936  T       0.00000000       0.00000000       0.00000000      -0.00094536       0.01270425      -0.00864969
Pd       1.49384896      -0.00649379      12.01170646  T       0.00000000       0.00000000       0.00000000      -0.01399801       0.01709402      -0.00280545
Pd       9.16077900       2.70292450       4.56559698  F       0.00000000       0.00000000       0.00000000       0.00277611      -0.00175104       0.11738068
Pd      10.68756280      10.81168006       6.11657659  F       0.00000000       0.00000000       0.00000000       0.00497534       0.00557666      -0.04243267
Pd       9.16077776       8.10875607       4.56559406  F       0.00000000       0.00000000       0.00000000       0.00265086       0.00235838       0.10893730
Pd       1.52678677       0.00000067       6.11658292  F       0.00000000       0.00000000       0.00000000       0.01146470       0.00573389      -0.03189876
Pd       9.14870704       8.10500944       7.64746246  T       0.00000000       0.00000000       0.00000000       0.00308648       0.03200930       0.00096390
Pd       9.15006735       2.70636334       7.65102195  T       0.00000000       0.00000000       0.00000000       0.00075188      -0.01580545       0.00259702
Pd      10.65334151       0.00263976       9.13242761  T       0.00000000       0.00000000       0.00000000      -0.00271130       0.01123472       0.00325076
Pd       0.00000135       2.70292705       4.56560641  F       0.00000000       0.00000000       0.00000000       0.00136180      -0.00296922       0.11157776
Pd       1.49535674      10.81539880       9.13013527  T       0.00000000       0.00000000       0.00000000       0.00399274      -0.00952745       0.00139664
Pd       9.12972064       2.70183355      10.76102019  T       0.00000000       0.00000000       0.00000000       0.01049092      -0.02585373       0.00080219
Pd       6.08044907       8.10625569      10.76882414  T       0.00000000       0.00000000       0.00000000      -0.01225559      -0.00457314      -0.04456416
Pd      10.65179159      10.81477366      12.01704027  T       0.00000000       0.00000000       0.00000000      -0.00054907       0.02312562      -0.01217529
Pd      -0.02186851       2.70828956       7.64861018  T       0.00000000       0.00000000       0.00000000       0.01310716      -0.03271808       0.00670842
Pd      10.68757280       5.40584816       6.11657764  F       0.00000000       0.00000000       0.00000000       0.00427495      -0.00202163      -0.06898768
Pd       9.16077813       8.10876919       1.50000000  F       0.00000000       0.00000000       0.00000000      -0.00000137      -0.00028537      -0.90375253
Pd      10.68757448       5.40584612       3.02679635  F       0.00000000       0.00000000       0.00000000       0.00076754      -0.00015063       0.04249848
Pd      12.18318872       2.69947259      10.75295304  T       0.00000000       0.00000000       0.00000000       0.00228562      -0.00736228       0.00828752
Pd       4.54925746      -0.00085764       9.14043556  T       0.00000000       0.00000000       0.00000000       0.00293120      -0.01010716      -0.02302444
Pd       7.63397856       5.40585179       6.11657833  F       0.00000000       0.00000000       0.00000000       0.00198244      -0.00233800      -0.03843753
Pd       7.60686946       5.40416927       9.14350233  T       0.00000000       0.00000000       0.00000000      -0.00651004       0.00529985      -0.00079073
Pd       4.55739414       5.39113806      12.01238076  T       0.00000000       0.00000000       0.00000000       0.02590940       0.01149820      -0.00432436
Pd       3.02506989       8.10588359      10.75894424  T       0.00000000       0.00000000       0.00000000       0.01336356      -0.00735331      -0.03014103
Pd       4.58038906       0.00000000       3.02679635  F       0.00000000       0.00000000       0.00000000       0.00103691       0.00017011       0.04885907
Pd       4.55815870       5.40212686       9.13368648  T       0.00000000       0.00000000       0.00000000      -0.00688291       0.00961727       0.01360881
Pd       3.04133352       8.11056499       7.64660765  T       0.00000000       0.00000000       0.00000000      -0.00193475      -0.00884907       0.01626804
Pd       3.05359494       2.70292824       4.56560681  F       0.00000000       0.00000000       0.00000000       0.00194153      -0.00089339       0.11509303
Pd       3.05359271       2.70292306       1.50000000  F       0.00000000       0.00000000       0.00000000       0.00000229      -0.00002209      -0.90424887
Pd       4.58039501       5.40584640       6.11658908  F       0.00000000       0.00000000       0.00000000       0.00627115      -0.00133016      -0.03601952
Pd       4.58040505      10.81168838       6.11658203  F       0.00000000       0.00000000       0.00000000       0.00661933       0.00169568      -0.03574535
Pd       4.58038906       5.40584612       3.02679635  F       0.00000000       0.00000000       0.00000000       0.00087253      -0.00007671       0.04800111
Pd       3.05359271       8.10876919       1.50000000  F       0.00000000       0.00000000       0.00000000      -0.00007769      -0.00001308      -0.90435001
Pd       3.03904146       2.70433746       7.64816890  T       0.00000000       0.00000000       0.00000000       0.00925244      -0.02138707       0.00510285
Pd       4.54732258      -0.01310267      12.02204999  T       0.00000000       0.00000000       0.00000000      -0.00627706       0.00488643      -0.00751944
Pd       3.02528959       2.69605353      10.76244292  T       0.00000000       0.00000000       0.00000000       0.00716318      -0.00023947      -0.00917849
Pd       3.05359569       8.10876742       4.56559865  F       0.00000000       0.00000000       0.00000000       0.00223036      -0.00108165       0.11203738
Pd       6.10718542       2.70292306       1.50000000  F       0.00000000       0.00000000       0.00000000      -0.00001389       0.00001820      -0.90416065
Pd       7.63398177       0.00000000       3.02679635  F       0.00000000       0.00000000       0.00000000       0.00107427       0.00011931       0.04904321
Pd       1.50859876       5.39726520      12.00767354  T       0.00000000       0.00000000       0.00000000       0.02475062      -0.00735198      -0.00948240
Pd       6.09355021       8.10840000       7.64927291  T       0.00000000       0.00000000       0.00000000      -0.00369204       0.00523085       0.01943196
Pd       0.00000079       8.10876600       4.56559869  F       0.00000000       0.00000000       0.00000000       0.00132784       0.00083125       0.09903148
Pd       6.10718651       8.10875952       4.56558968  F       0.00000000       0.00000000       0.00000000       0.00176972       0.00046398       0.11837154
Pd       1.52680247       5.40584247       6.11658534  F       0.00000000       0.00000000       0.00000000       0.01063131      -0.00074153      -0.03741958
Pd       7.63398177       5.40584612       3.02679635  F       0.00000000       0.00000000       0.00000000       0.00075219      -0.00009149       0.04829373
Pd       6.10718542       8.10876919       1.50000000  F       0.00000000       0.00000000       0.00000000       0.00003149       0.00004027      -0.90412102
Pd      -0.01772270       8.10709336       7.64339702  T       0.00000000       0.00000000       0.00000000      -0.00233799       0.01409989      -0.00325044
Pd       7.59827466      10.80752321      12.02613565  T       0.00000000       0.00000000       0.00000000       0.00426179       0.00715630      -0.01444248
Pd       6.08198170       2.69482912      10.76607483  T       0.00000000       0.00000000       0.00000000      -0.00894710       0.00329539      -0.00166600
Pd       1.50515591       5.40529300       9.13744696  T       0.00000000       0.00000000       0.00000000       0.01326768       0.00724898      -0.00303311
Pd       7.59981971      -0.00080328       9.13668295  T       0.00000000       0.00000000       0.00000000       0.01054320      -0.00285839      -0.00214515
Pd       6.09428903       2.70169195       7.64887061  T       0.00000000       0.00000000       0.00000000       0.00007659      -0.00400536       0.01573356
Pd      12.19308061       8.12006498      10.73472138  T       0.00000000       0.00000000       0.00000000       0.00133746       0.01679732       0.01801717
Pd       7.63399583      10.81167532       6.11657540  F       0.00000000       0.00000000       0.00000000       0.00283619       0.00034179      -0.03248795
Pd       6.10718592       2.70292523       4.56558724  F       0.00000000       0.00000000       0.00000000       0.00209665       0.00070255       0.11702050
Pd       1.52679635       5.40584612       3.02679635  F       0.00000000       0.00000000       0.00000000       0.00092732      -0.00004069       0.04782340
Pd       0.00000000       2.70292306       1.50000000  F       0.00000000       0.00000000       0.00000000       0.00019093       0.00031096      -0.90375452
C        9.56559663       3.29862426      15.56314392  T       0.00000000       0.00000000       0.00000000      -0.03204484      -0.00982425      -0.02300575
O       10.33185913       2.44454240      15.57533539  T       0.00000000       0.00000000       0.00000000       0.01384546      -0.02371792      -0.02355119
O       10.72270276       5.44097604      14.08725409  T       0.00000000       0.00000000       0.00000000      -0.00036177       0.00970349       0.01385150
C       10.61964203       6.70963713      14.70467606  T       0.00000000       0.00000000       0.00000000      -0.00322430      -0.00636842       0.02398060
H       10.87720061       6.51331629      15.76707474  T       0.00000000       0.00000000       0.00000000      -0.01429792       0.01065417      -0.00158365
H       11.33882398       7.44914913      14.29868576  T       0.00000000       0.00000000       0.00000000      -0.00389649       0.00313368       0.00786697
H        9.59596522       7.13444043      14.65612165  T       0.00000000       0.00000000       0.00000000       0.01759753      -0.00329313      -0.01964398
