135
Lattice="12.21437083684855 0.0 7e-16 1.7e-15 10.811692246786171 7e-16 0.0 0.0 30.687574482242482" Properties=species:S:1:pos:R:3:move_mask:L:1:momenta:R:3:forces:R:3 idx=1723 E_MACE=-715.9527503242717 d_min=1.471177128569433 d_reactive=1.1788171285926732 rank=2 dE_rel_meV=177.1050638028555 converged=T energy=-715.9527503242717 stress="-0.00011889697370973118 1.8374553508862576e-06 8.376750002399095e-05 1.8374553508862576e-06 -0.0013102373238608207 -4.582611219490355e-05 8.376750002399095e-05 -4.582611219490355e-05 -0.0036393183406933866" pbc="T T T"
O        3.10467441       6.73925161      12.16719183  T       0.00000000       0.00000000       0.00000000      -0.01926579       0.01536293      -0.00604116
O        6.12009292       1.30398982      12.18552238  T       0.00000000       0.00000000       0.00000000       0.00691595       0.01377871      -0.00678837
O        6.13378638       4.09760251      12.17665370  T       0.00000000       0.00000000       0.00000000       0.00284468       0.00507234      -0.00059156
O        6.11366603       1.35342148       9.17535810  T       0.00000000       0.00000000       0.00000000       0.00415482      -0.00164794       0.00050688
O        6.12015307       4.04393565       9.17647474  T       0.00000000       0.00000000       0.00000000       0.00116223      -0.00055457      -0.00500242
O        6.10718343       1.35539432       6.10801899  F       0.00000000       0.00000000       0.00000000       0.00099473       0.01905436       0.08509395
O        6.10718534       4.05045008       6.10801162  F       0.00000000       0.00000000       0.00000000       0.00615386      -0.03306180       0.09890571
O        6.10718542       1.35146153       3.02679635  F       0.00000000       0.00000000       0.00000000       0.00021736      -0.47169139       0.31282836
O        6.10718542       4.05438459       3.02679635  F       0.00000000       0.00000000       0.00000000       0.00026734       0.47167818       0.31278522
O        9.17801186       9.50089131      12.15425912  T       0.00000000       0.00000000       0.00000000      -0.00351631       0.01000374       0.00330126
O        3.06350312       9.50314147      12.14132841  T       0.00000000       0.00000000       0.00000000      -0.00598274      -0.01098683       0.01705957
O        3.07007602       6.75426255       9.16001601  T       0.00000000       0.00000000       0.00000000      -0.00941289       0.00825080      -0.00109925
O        3.05466666       9.46269168       9.15484044  T       0.00000000       0.00000000       0.00000000       0.00497696      -0.00353490       0.00724163
O        3.05359341       6.76124998       6.10801980  F       0.00000000       0.00000000       0.00000000       0.01213928      -0.00862951       0.05354754
O        3.05359360       9.45629444       6.10802097  F       0.00000000       0.00000000       0.00000000      -0.00257072       0.00376180       0.05556706
O        3.05359271       6.75730765       3.02679635  F       0.00000000       0.00000000       0.00000000       0.00029516      -0.47079327       0.31570407
O        3.05359271       9.46023072       3.02679635  F       0.00000000       0.00000000       0.00000000       0.00019594       0.47116167       0.31522685
O        3.06664898       1.30680904      12.19232622  T       0.00000000       0.00000000       0.00000000       0.00883071       0.01594751       0.00139406
O        6.10718542       9.46023072       3.02679635  F       0.00000000       0.00000000       0.00000000       0.00018384       0.47132496       0.31394905
O        6.10718542       6.75730765       3.02679635  F       0.00000000       0.00000000       0.00000000       0.00024116      -0.47117175       0.31428623
O        6.10718028       9.45628983       6.10801454  F       0.00000000       0.00000000       0.00000000       0.00257267      -0.01666866       0.08101571
O        6.10718760       6.76124043       6.10802244  F       0.00000000       0.00000000       0.00000000       0.00640865       0.01367794       0.07553556
O        9.17043475       6.75633726       9.16074253  T       0.00000000       0.00000000       0.00000000       0.00740950       0.00577168       0.01108310
O        9.17250437       9.46254603       9.15752103  T       0.00000000       0.00000000       0.00000000      -0.00743788      -0.00659007       0.01142602
O        9.16078073       6.76123572       6.10801818  F       0.00000000       0.00000000       0.00000000       0.00433552      -0.00059713       0.06012034
O        9.16078059       9.45627785       6.10801483  F       0.00000000       0.00000000       0.00000000       0.00697982       0.00333685       0.05858741
O        9.16077813       6.75730765       3.02679635  F       0.00000000       0.00000000       0.00000000       0.00016606      -0.47107812       0.31520547
O        9.16077813       9.46023072       3.02679635  F       0.00000000       0.00000000       0.00000000       0.00014796       0.47128022       0.31489710
O        9.17024783       1.31052279      12.20184230  T       0.00000000       0.00000000       0.00000000       0.01201891      -0.00604963      -0.00211567
O        9.19883395       4.11989241      12.17134938  T       0.00000000       0.00000000       0.00000000      -0.00852699      -0.00916138       0.00138497
O        3.06695118       4.11944537      12.16298465  T       0.00000000       0.00000000       0.00000000      -0.01752761       0.00208443       0.00297422
O        9.16756103       1.35833904       9.17878627  T       0.00000000       0.00000000       0.00000000      -0.00065227       0.00128808       0.00191928
O        9.16077827       1.35539012       6.10801450  F       0.00000000       0.00000000       0.00000000       0.00124129       0.01927445       0.08816940
O        9.16078421       4.05045012       6.10800209  F       0.00000000       0.00000000       0.00000000       0.01037815      -0.02927742       0.09411235
O        9.16077813       1.35146153       3.02679635  F       0.00000000       0.00000000       0.00000000       0.00008121      -0.47159907       0.31269946
O        9.16077813       4.05438459       3.02679635  F       0.00000000       0.00000000       0.00000000       0.00027701       0.47206566       0.31290450
O        6.13537798       6.71599780      12.17925431  T       0.00000000       0.00000000       0.00000000      -0.01057178      -0.00163910      -0.02375175
O        6.12036487       9.50946742      12.16250106  T       0.00000000       0.00000000       0.00000000      -0.00116851      -0.00607756      -0.00756554
O        6.12029575       6.75714076       9.16838405  T       0.00000000       0.00000000       0.00000000      -0.00215542      -0.00198347       0.00120980
O        6.11499866       9.45609101       9.16752550  T       0.00000000       0.00000000       0.00000000       0.00250477      -0.00016903      -0.00685665
O        9.17538131       4.04716710       9.17390254  T       0.00000000       0.00000000       0.00000000       0.00017631       0.00423962      -0.00302216
O        3.06122510       1.35716842       9.17634364  T       0.00000000       0.00000000       0.00000000      -0.00628050       0.00038355      -0.00263579
O        9.16183237       6.73838740      12.17754170  T       0.00000000       0.00000000       0.00000000       0.00234433       0.00779450      -0.00288577
O       12.22607196       9.52423661      12.17356418  T       0.00000000       0.00000000       0.00000000       0.00614269      -0.02432160      -0.00127195
O        0.00000000       6.75730765       3.02679635  F       0.00000000       0.00000000       0.00000000       0.00013767      -0.47117026       0.31441600
O        3.06696475       4.04698006       9.17036819  T       0.00000000       0.00000000       0.00000000      -0.01183078       0.01357607       0.01592569
O        0.01534009       1.39921987      12.36142147  T       0.00000000       0.00000000       0.00000000       0.01224465       0.01871401      -0.02792155
O        0.00000951       9.45630243       6.10801529  F       0.00000000       0.00000000       0.00000000       0.00408534      -0.01159288       0.06915733
O       12.23986576       4.18199009      12.12088756  T       0.00000000       0.00000000       0.00000000      -0.00531528       0.00639122       0.03151421
O        0.00000182       6.76124509       6.10800952  F       0.00000000       0.00000000       0.00000000       0.01149323       0.00961253       0.08032985
O        0.00502885       9.46447213       9.16223761  T       0.00000000       0.00000000       0.00000000       0.01067697       0.01055717      -0.00161647
O        0.00480587       1.36592681       9.19278322  T       0.00000000       0.00000000       0.00000000       0.01207511       0.01560230       0.00759943
O        0.01319485       6.76205066       9.17071620  T       0.00000000       0.00000000       0.00000000       0.00740609      -0.00165131       0.00256980
O       12.22864267       4.04216601       9.16889493  T       0.00000000       0.00000000       0.00000000      -0.01168863       0.00451650      -0.00294483
O       12.23803619       6.76242891      12.18782161  T       0.00000000       0.00000000       0.00000000      -0.00087938       0.00934992      -0.00476979
O        0.00000448       1.35539672       6.10801283  F       0.00000000       0.00000000       0.00000000      -0.00012870      -0.00455923       0.06733702
O        0.00000331       4.05045002       6.10801189  F       0.00000000       0.00000000       0.00000000       0.00820791      -0.04691789       0.09113202
O        3.05359271       4.05438459       3.02679635  F       0.00000000       0.00000000       0.00000000       0.00018701       0.47197945       0.31366232
O        0.00000000       9.46023072       3.02679635  F       0.00000000       0.00000000       0.00000000       0.00008098       0.47098815       0.31386581
O        3.05359105       4.05044320       6.10802763  F       0.00000000       0.00000000       0.00000000       0.00432032      -0.01959267       0.08229610
O        3.05359271       1.35146153       3.02679635  F       0.00000000       0.00000000       0.00000000       0.00028144      -0.47143259       0.31343516
O        3.05359652       1.35540103       6.10801944  F       0.00000000       0.00000000       0.00000000       0.00166386       0.01500462       0.08003822
O        0.00000000       4.05438459       3.02679635  F       0.00000000       0.00000000       0.00000000       0.00016254       0.47211160       0.31282788
O        0.00000000       1.35146153       3.02679635  F       0.00000000       0.00000000       0.00000000       0.00008900      -0.47141157       0.31364715
Pd       7.65741058       5.40993141      12.02509645  T       0.00000000       0.00000000       0.00000000      -0.00765696       0.01063986       0.00074947
Pd      10.69995366       5.46423625      12.02208333  T       0.00000000       0.00000000       0.00000000      -0.01279806       0.00786634      -0.01496646
Pd       0.00000000       8.10876919       1.50000000  F       0.00000000       0.00000000       0.00000000      -0.00001216       0.00012700      -0.90372862
Pd       9.17225108       8.11145192      10.74897581  T       0.00000000       0.00000000       0.00000000       0.00252488      -0.00014529       0.01323508
Pd       1.52679635       0.00000000       3.02679635  F       0.00000000       0.00000000       0.00000000      -0.00005896      -0.00015644       0.04913296
Pd       9.16077813       2.70292306       1.50000000  F       0.00000000       0.00000000       0.00000000       0.00000111      -0.00012105      -0.90379059
Pd      10.68757448       0.00000000       3.02679635  F       0.00000000       0.00000000       0.00000000      -0.00050141      -0.00011005       0.04943641
Pd      10.70091390       5.40432310       9.14202000  T       0.00000000       0.00000000       0.00000000      -0.00703193       0.00495529       0.00022420
Pd       1.55900246      -0.01354939      12.04386172  T       0.00000000       0.00000000       0.00000000       0.01193501      -0.01356395      -0.00442596
Pd       9.16077900       2.70292450       4.56559698  F       0.00000000       0.00000000       0.00000000      -0.00133737       0.00088353       0.12837527
Pd      10.68756280      10.81168006       6.11657659  F       0.00000000       0.00000000       0.00000000      -0.00211179       0.00404431      -0.04880451
Pd       9.16077776       8.10875607       4.56559406  F       0.00000000       0.00000000       0.00000000      -0.00086551      -0.00112298       0.11291752
Pd       1.52678677       0.00000067       6.11658292  F       0.00000000       0.00000000       0.00000000      -0.00299384       0.00379765      -0.04914528
Pd       9.16614868       8.10915591       7.64620609  T       0.00000000       0.00000000       0.00000000       0.00206672      -0.00344472       0.00165108
Pd       9.16665347       2.70180087       7.65406560  T       0.00000000       0.00000000       0.00000000       0.00197282       0.00153552      -0.00438557
Pd      10.69366415       0.00860660       9.14095698  T       0.00000000       0.00000000       0.00000000       0.00947262       0.00929965       0.00115163
Pd       0.00000135       2.70292705       4.56560641  F       0.00000000       0.00000000       0.00000000      -0.00071034       0.00495481       0.12235103
Pd       1.53123217      10.82019709       9.13916717  T       0.00000000       0.00000000       0.00000000       0.00527878       0.01242204       0.00167770
Pd       9.17924635       2.70621983      10.77878262  T       0.00000000       0.00000000       0.00000000      -0.00267326       0.00015155       0.00275697
Pd       6.12410740       8.10778732      10.76509796  T       0.00000000       0.00000000       0.00000000      -0.00347576      -0.00250506      -0.00282432
Pd      10.67940825      10.79989175      12.05744572  T       0.00000000       0.00000000       0.00000000      -0.02332960       0.00342224      -0.01771294
Pd       0.00437353       2.69544582       7.65333655  T       0.00000000       0.00000000       0.00000000       0.00123900       0.00814333       0.00632016
Pd      10.68757280       5.40584816       6.11657764  F       0.00000000       0.00000000       0.00000000      -0.00162228      -0.00949646      -0.04354014
Pd       9.16077813       8.10876919       1.50000000  F       0.00000000       0.00000000       0.00000000      -0.00002079       0.00005129      -0.90396614
Pd      10.68757448       5.40584612       3.02679635  F       0.00000000       0.00000000       0.00000000      -0.00023206      -0.00043199       0.04873835
Pd      12.22865346       2.76201713      10.77434019  T       0.00000000       0.00000000       0.00000000       0.00166425      -0.03404791       0.00740890
Pd       4.58694051      -0.00044163       9.14074286  T       0.00000000       0.00000000       0.00000000      -0.00250853       0.01609819       0.00096011
Pd       7.63397856       5.40585179       6.11657833  F       0.00000000       0.00000000       0.00000000      -0.00391800      -0.00685858      -0.03663982
Pd       7.64573725       5.39960496       9.14037455  T       0.00000000       0.00000000       0.00000000       0.00049492       0.00882206       0.01068004
Pd       4.61062761       5.41118034      12.02689748  T       0.00000000       0.00000000       0.00000000      -0.00474760       0.00012702      -0.00290774
Pd       3.07111364       8.11116206      10.74170546  T       0.00000000       0.00000000       0.00000000       0.01274672       0.00040976       0.00324739
Pd       4.58038906       0.00000000       3.02679635  F       0.00000000       0.00000000       0.00000000      -0.00017376       0.00007861       0.04864362
Pd       4.59560553       5.39922681       9.14082707  T       0.00000000       0.00000000       0.00000000       0.00351133       0.00875459      -0.01503609
Pd       3.05827227       8.10822322       7.64505161  T       0.00000000       0.00000000       0.00000000      -0.00394779       0.00018770      -0.00105230
Pd       3.05359494       2.70292824       4.56560681  F       0.00000000       0.00000000       0.00000000      -0.00017308       0.00024402       0.12150146
Pd       3.05359271       2.70292306       1.50000000  F       0.00000000       0.00000000       0.00000000      -0.00001918      -0.00011270      -0.90398231
Pd       4.58039501       5.40584640       6.11658908  F       0.00000000       0.00000000       0.00000000       0.00157232      -0.00585301      -0.03968740
Pd       4.58040505      10.81168838       6.11658203  F       0.00000000       0.00000000       0.00000000       0.00199708       0.00257210      -0.03952107
Pd       4.58038906       5.40584612       3.02679635  F       0.00000000       0.00000000       0.00000000      -0.00030324      -0.00040898       0.04895243
Pd       3.05359271       8.10876919       1.50000000  F       0.00000000       0.00000000       0.00000000       0.00000425       0.00001056      -0.90408966
Pd       3.05763145       2.70239793       7.65164811  T       0.00000000       0.00000000       0.00000000       0.00435405      -0.01744723       0.00377016
Pd       4.59450051       0.00272666      12.02078027  T       0.00000000       0.00000000       0.00000000       0.01615219       0.00146273      -0.00460811
Pd       3.06653762       2.70299145      10.77248717  T       0.00000000       0.00000000       0.00000000      -0.00499811       0.01052404       0.00246054
Pd       3.05359569       8.10876742       4.56559865  F       0.00000000       0.00000000       0.00000000      -0.00064410      -0.00058974       0.10945233
Pd       6.10718542       2.70292306       1.50000000  F       0.00000000       0.00000000       0.00000000      -0.00000790       0.00002011      -0.90382968
Pd       7.63398177       0.00000000       3.02679635  F       0.00000000       0.00000000       0.00000000      -0.00021775       0.00004720       0.04881232
Pd       1.56582614       5.46622314      12.01804127  T       0.00000000       0.00000000       0.00000000       0.00641255       0.00807667       0.00011288
Pd       6.11212647       8.10797043       7.65027427  T       0.00000000       0.00000000       0.00000000       0.00135619      -0.00849262       0.00680336
Pd       0.00000079       8.10876600       4.56559869  F       0.00000000       0.00000000       0.00000000      -0.00072405      -0.00075525       0.12288129
Pd       6.10718651       8.10875952       4.56558968  F       0.00000000       0.00000000       0.00000000      -0.00086071       0.00017248       0.12141287
Pd       1.52680247       5.40584247       6.11658534  F       0.00000000       0.00000000       0.00000000      -0.00661121      -0.00895351      -0.04789569
Pd       7.63398177       5.40584612       3.02679635  F       0.00000000       0.00000000       0.00000000      -0.00024375      -0.00036925       0.04883620
Pd       6.10718542       8.10876919       1.50000000  F       0.00000000       0.00000000       0.00000000      -0.00000886       0.00001602      -0.90395092
Pd       0.00632036       8.10930403       7.65004841  T       0.00000000       0.00000000       0.00000000      -0.01236753       0.00002081       0.00353191
Pd       7.64595335      10.81434125      12.02648886  T       0.00000000       0.00000000       0.00000000      -0.00382328       0.00230361      -0.01249739
Pd       6.12360298       2.69770436      10.77694766  T       0.00000000       0.00000000       0.00000000      -0.00734192       0.00564569      -0.00661884
Pd       1.54144887       5.40338406       9.13985701  T       0.00000000       0.00000000       0.00000000      -0.00461484       0.01121327      -0.00130813
Pd       7.64141538       0.00180538       9.14209751  T       0.00000000       0.00000000       0.00000000      -0.00298893      -0.00638529       0.00005654
Pd       6.11116942       2.70064861       7.65399816  T       0.00000000       0.00000000       0.00000000       0.00498760       0.00874834      -0.00094089
Pd      12.22711651       8.13006214      10.76396095  T       0.00000000       0.00000000       0.00000000      -0.00207939       0.00443054      -0.00805084
Pd       7.63399583      10.81167532       6.11657540  F       0.00000000       0.00000000       0.00000000      -0.00494202       0.00330212      -0.03944504
Pd       6.10718592       2.70292523       4.56558724  F       0.00000000       0.00000000       0.00000000      -0.00072813       0.00128796       0.12849010
Pd       1.52679635       5.40584612       3.02679635  F       0.00000000       0.00000000       0.00000000      -0.00067208      -0.00037674       0.04864021
Pd       0.00000000       2.70292306       1.50000000  F       0.00000000       0.00000000       0.00000000       0.00001945      -0.00002960      -0.90383559
C        3.12787479       4.80598180      15.48363741  T       0.00000000       0.00000000       0.00000000      -0.01518626       0.00253826       0.02518129
O        2.66253953       5.88683536      15.39461597  T       0.00000000       0.00000000       0.00000000       0.01251535      -0.03010357      -0.03337815
O        3.58689040       3.72567254      15.59247863  T       0.00000000       0.00000000       0.00000000       0.00516050      -0.00457341      -0.00588281
C        0.04373428       1.88170655      13.75094028  T       0.00000000       0.00000000       0.00000000       0.01045429      -0.02678689       0.01154712
H       -0.85006693       1.50161633      14.26940000  T       0.00000000       0.00000000       0.00000000      -0.00427736       0.00474740      -0.01796489
H        0.04551547       2.97857596      13.72663361  T       0.00000000       0.00000000       0.00000000      -0.01628143      -0.00426512       0.02099967
H        0.96008739       1.50437472      14.23067420  T       0.00000000       0.00000000       0.00000000      -0.00600998       0.00396615      -0.00620218
