135
Lattice="12.21437083684855 0.0 7e-16 1.7e-15 10.811692246786171 7e-16 0.0 0.0 30.687574482242482" Properties=species:S:1:pos:R:3:move_mask:L:1:momenta:R:3:forces:R:3 idx=6990 E_MACE=-715.3660177545149 d_min=1.4102940141273468 d_reactive=1.3331610775061542 rank=8 dE_rel_meV=763.8376335596604 converged=T energy=-715.3660177545149 stress="-0.0005208457477936992 -7.599320368947446e-05 -4.690664620835654e-05 -7.599320368947446e-05 -0.0014174701632897416 -0.0001333583474628665 -4.690664620835654e-05 -0.0001333583474628665 -0.0037469560305492897" pbc="T T T"
O        3.04842454       6.71399375      12.16233744  T       0.00000000       0.00000000       0.00000000       0.00854379       0.00915800      -0.00409102
O        6.07653560       1.29939834      12.16139757  T       0.00000000       0.00000000       0.00000000       0.01654935      -0.00518658      -0.01203689
O        6.10146124       4.09785430      12.16052319  T       0.00000000       0.00000000       0.00000000      -0.00620935      -0.01001422       0.00399559
O        6.08776658       1.35283204       9.16341777  T       0.00000000       0.00000000       0.00000000      -0.00063437      -0.00846840      -0.00802134
O        6.10078775       4.04880220       9.16547770  T       0.00000000       0.00000000       0.00000000      -0.00555726       0.00626955       0.00185747
O        6.10718343       1.35539432       6.10801899  F       0.00000000       0.00000000       0.00000000      -0.01480057       0.00561850       0.06046660
O        6.10718534       4.05045008       6.10801162  F       0.00000000       0.00000000       0.00000000      -0.00364731      -0.00931301       0.06837673
O        6.10718542       1.35146153       3.02679635  F       0.00000000       0.00000000       0.00000000      -0.00034581      -0.47144840       0.31478333
O        6.10718542       4.05438459       3.02679635  F       0.00000000       0.00000000       0.00000000      -0.00025382       0.47152777       0.31445293
O        9.10463224       9.46824352      12.16588754  T       0.00000000       0.00000000       0.00000000       0.00200963       0.00070460      -0.00562903
O        3.04429480       9.47151156      12.17933622  T       0.00000000       0.00000000       0.00000000       0.00058492       0.01463275      -0.00067384
O        3.03696938       6.74744142       9.15835621  T       0.00000000       0.00000000       0.00000000       0.01634107       0.00153495       0.00256963
O        3.03680661       9.44898471       9.16877610  T       0.00000000       0.00000000       0.00000000       0.00856407       0.00497618      -0.01315554
O        3.05359341       6.76124998       6.10801980  F       0.00000000       0.00000000       0.00000000      -0.01167315      -0.00306053       0.05665768
O        3.05359360       9.45629444       6.10802097  F       0.00000000       0.00000000       0.00000000      -0.00942961      -0.01282469       0.08032968
O        3.05359271       6.75730765       3.02679635  F       0.00000000       0.00000000       0.00000000      -0.00048848      -0.47132424       0.31472259
O        3.05359271       9.46023072       3.02679635  F       0.00000000       0.00000000       0.00000000      -0.00039719       0.47102705       0.31454400
O        3.02440564       1.27261131      12.16917544  T       0.00000000       0.00000000       0.00000000      -0.01046030       0.01070807      -0.01900221
O        6.10718542       9.46023072       3.02679635  F       0.00000000       0.00000000       0.00000000      -0.00035876       0.47107409       0.31551969
O        6.10718542       6.75730765       3.02679635  F       0.00000000       0.00000000       0.00000000      -0.00025390      -0.47112253       0.31560094
O        6.10718028       9.45628983       6.10801454  F       0.00000000       0.00000000       0.00000000      -0.00905896       0.00019225       0.05559530
O        6.10718760       6.76124043       6.10802244  F       0.00000000       0.00000000       0.00000000       0.00179924      -0.00087505       0.05344599
O        9.16492926       6.74410241       9.15091222  T       0.00000000       0.00000000       0.00000000      -0.00539427       0.00474872       0.00728642
O        9.14022902       9.45293347       9.15986228  T       0.00000000       0.00000000       0.00000000       0.00668375      -0.00916519      -0.00930598
O        9.16078073       6.76123572       6.10801818  F       0.00000000       0.00000000       0.00000000       0.01206639      -0.02190609       0.03596697
O        9.16078059       9.45627785       6.10801483  F       0.00000000       0.00000000       0.00000000      -0.01232070      -0.00395535       0.06558781
O        9.16077813       6.75730765       3.02679635  F       0.00000000       0.00000000       0.00000000       0.00029339      -0.47120967       0.31555441
O        9.16077813       9.46023072       3.02679635  F       0.00000000       0.00000000       0.00000000      -0.00007263       0.47076244       0.31552290
O        9.13889875       1.27626741      12.15773475  T       0.00000000       0.00000000       0.00000000       0.00726443      -0.01112975      -0.01490092
O        9.12968723       4.08643837      12.16884450  T       0.00000000       0.00000000       0.00000000       0.00557654      -0.00201055      -0.00601698
O        3.08484965       4.10103146      12.17013723  T       0.00000000       0.00000000       0.00000000      -0.00614815       0.00546950      -0.01220778
O        9.15014989       1.34565941       9.16063914  T       0.00000000       0.00000000       0.00000000      -0.00042946       0.00382072       0.01213612
O        9.16077827       1.35539012       6.10801450  F       0.00000000       0.00000000       0.00000000       0.00254006       0.00093388       0.05318058
O        9.16078421       4.05045012       6.10800209  F       0.00000000       0.00000000       0.00000000       0.00468535      -0.01294240       0.07893221
O        9.16077813       1.35146153       3.02679635  F       0.00000000       0.00000000       0.00000000       0.00008975      -0.47186358       0.31483091
O        9.16077813       4.05438459       3.02679635  F       0.00000000       0.00000000       0.00000000       0.00006177       0.47138573       0.31384528
O        6.10957564       6.71812829      12.15549021  T       0.00000000       0.00000000       0.00000000      -0.01586887      -0.01638171      -0.00029023
O        6.08086368       9.49774473      12.15987578  T       0.00000000       0.00000000       0.00000000       0.01399642      -0.01455210       0.00992162
O        6.10342619       6.75624587       9.15745034  T       0.00000000       0.00000000       0.00000000      -0.00813417      -0.00961927      -0.01131396
O        6.09082827       9.45821205       9.15942576  T       0.00000000       0.00000000       0.00000000      -0.00587330       0.00414606      -0.00875220
O        9.15478149       4.03961684       9.17242817  T       0.00000000       0.00000000       0.00000000      -0.01087360       0.00130608       0.00989931
O        3.02925585       1.34781189       9.16857518  T       0.00000000       0.00000000       0.00000000       0.01378615      -0.01215529      -0.00466025
O        9.15413741       6.70899300      12.14173625  T       0.00000000       0.00000000       0.00000000      -0.01857202       0.00018825       0.01757402
O       12.18478268       9.44350587      12.19044589  T       0.00000000       0.00000000       0.00000000      -0.00401235       0.00649383       0.01494360
O        0.00000000       6.75730765       3.02679635  F       0.00000000       0.00000000       0.00000000      -0.00023110      -0.47128307       0.31221476
O        3.05065295       4.04005855       9.17845049  T       0.00000000       0.00000000       0.00000000      -0.00363139      -0.01267203      -0.00820937
O       -0.04440362       1.21339847      12.14332280  T       0.00000000       0.00000000       0.00000000       0.00371232       0.01063574      -0.00947256
O        0.00000951       9.45630243       6.10801529  F       0.00000000       0.00000000       0.00000000      -0.01180837      -0.05114600       0.13328066
O       12.20052296       3.96323342      12.41027244  T       0.00000000       0.00000000       0.00000000      -0.00516327       0.01035033       0.00999527
O        0.00000182       6.76124509       6.10800952  F       0.00000000       0.00000000       0.00000000      -0.00298534       0.01026584       0.07162932
O       -0.01726314       9.43406279       9.18503796  T       0.00000000       0.00000000       0.00000000       0.00916851       0.00940933      -0.00959294
O       -0.01551105       1.34228296       9.15949841  T       0.00000000       0.00000000       0.00000000       0.00517866       0.01274602       0.00712594
O       -0.00686559       6.73649282       9.16934463  T       0.00000000       0.00000000       0.00000000      -0.00244211       0.02346887       0.01232103
O       12.21008845       4.02134401       9.20732098  T       0.00000000       0.00000000       0.00000000       0.00536310      -0.01660824      -0.00881314
O       12.20320868       6.66292303      12.19333573  T       0.00000000       0.00000000       0.00000000       0.01500107      -0.00360682      -0.01923914
O        0.00000448       1.35539672       6.10801283  F       0.00000000       0.00000000       0.00000000      -0.01048373       0.04344959       0.07477141
O        0.00000331       4.05045002       6.10801189  F       0.00000000       0.00000000       0.00000000      -0.00118426      -0.01975966       0.10637501
O        3.05359271       4.05438459       3.02679635  F       0.00000000       0.00000000       0.00000000      -0.00029896       0.47154058       0.31290800
O        0.00000000       9.46023072       3.02679635  F       0.00000000       0.00000000       0.00000000      -0.00026121       0.47110807       0.31268667
O        3.05359105       4.05044320       6.10802763  F       0.00000000       0.00000000       0.00000000      -0.00138355      -0.02399064       0.09217995
O        3.05359271       1.35146153       3.02679635  F       0.00000000       0.00000000       0.00000000      -0.00059199      -0.47179967       0.31390676
O        3.05359652       1.35540103       6.10801944  F       0.00000000       0.00000000       0.00000000      -0.02157500       0.01610544       0.07181910
O        0.00000000       4.05438459       3.02679635  F       0.00000000       0.00000000       0.00000000      -0.00015898       0.47107261       0.31273348
O        0.00000000       1.35146153       3.02679635  F       0.00000000       0.00000000       0.00000000      -0.00018953      -0.47219956       0.31291122
Pd       7.62143763       5.40173816      12.00201517  T       0.00000000       0.00000000       0.00000000       0.01053096       0.00902167       0.00914782
Pd      10.64324667       5.40117995      12.07738648  T       0.00000000       0.00000000       0.00000000      -0.01738921      -0.02775131       0.02484399
Pd       0.00000000       8.10876919       1.50000000  F       0.00000000       0.00000000       0.00000000      -0.00000417      -0.00004851      -0.90337892
Pd       9.14450241       8.09367482      10.73984226  T       0.00000000       0.00000000       0.00000000      -0.00058944       0.03199198       0.01021850
Pd       1.52679635       0.00000000       3.02679635  F       0.00000000       0.00000000       0.00000000       0.00003844       0.00012535       0.04879592
Pd       9.16077813       2.70292306       1.50000000  F       0.00000000       0.00000000       0.00000000      -0.00014887       0.00027040      -0.90421079
Pd      10.68757448       0.00000000       3.02679635  F       0.00000000       0.00000000       0.00000000       0.00110546       0.00019755       0.04859430
Pd      10.68441164       5.38259735       9.14953100  T       0.00000000       0.00000000       0.00000000       0.01046556      -0.00073325      -0.00444692
Pd       1.50549029      -0.06080440      12.03671630  T       0.00000000       0.00000000       0.00000000      -0.00953748       0.03058970      -0.00069382
Pd       9.16077900       2.70292450       4.56559698  F       0.00000000       0.00000000       0.00000000       0.00035926       0.00160248       0.11374497
Pd      10.68756280      10.81168006       6.11657659  F       0.00000000       0.00000000       0.00000000       0.00872390      -0.00685560      -0.04425770
Pd       9.16077776       8.10875607       4.56559406  F       0.00000000       0.00000000       0.00000000       0.00070813       0.00266543       0.10793936
Pd       1.52678677       0.00000067       6.11658292  F       0.00000000       0.00000000       0.00000000       0.00098767      -0.00652163      -0.04531255
Pd       9.15752764       8.10400489       7.64453397  T       0.00000000       0.00000000       0.00000000       0.00856231       0.00667988      -0.00531132
Pd       9.16048639       2.69949914       7.64840838  T       0.00000000       0.00000000       0.00000000      -0.00809304       0.00514266       0.00700970
Pd      10.67079623      -0.01531975       9.14100432  T       0.00000000       0.00000000       0.00000000       0.01038846      -0.00855006       0.00849581
Pd       0.00000135       2.70292705       4.56560641  F       0.00000000       0.00000000       0.00000000       0.00047377      -0.00105981       0.12393145
Pd       1.50816260      10.79558023       9.14179474  T       0.00000000       0.00000000       0.00000000       0.00144723       0.00251094       0.01769000
Pd       9.14574778       2.68657481      10.76248300  T       0.00000000       0.00000000       0.00000000      -0.00469869       0.00364105       0.01981434
Pd       6.09838266       8.10817142      10.75018450  T       0.00000000       0.00000000       0.00000000      -0.00786122      -0.00278937       0.01814644
Pd      10.64048752      10.74342292      12.02383386  T       0.00000000       0.00000000       0.00000000       0.01675282      -0.00627803      -0.00363862
Pd      -0.00520298       2.70353925       7.65416938  T       0.00000000       0.00000000       0.00000000       0.00456052       0.01455234      -0.01127883
Pd      10.68757280       5.40584816       6.11657764  F       0.00000000       0.00000000       0.00000000       0.00675764      -0.01104254      -0.05176197
Pd       9.16077813       8.10876919       1.50000000  F       0.00000000       0.00000000       0.00000000      -0.00012608       0.00004531      -0.90428583
Pd      10.68757448       5.40584612       3.02679635  F       0.00000000       0.00000000       0.00000000       0.00026430      -0.00009388       0.04985733
Pd      12.21373371       2.60700666      10.77122636  T       0.00000000       0.00000000       0.00000000       0.00213605       0.00636968       0.02091089
Pd       4.56041941      -0.00292774       9.13479750  T       0.00000000       0.00000000       0.00000000       0.00267851       0.00615979       0.01219464
Pd       7.63397856       5.40585179       6.11657833  F       0.00000000       0.00000000       0.00000000      -0.00202303      -0.00749534      -0.03711894
Pd       7.63051751       5.39888750       9.13088365  T       0.00000000       0.00000000       0.00000000      -0.00222598      -0.00726490       0.01148881
Pd       4.58854260       5.41271709      12.00841187  T       0.00000000       0.00000000       0.00000000      -0.00170035       0.00272909      -0.00316815
Pd       3.03548068       8.09507697      10.75345058  T       0.00000000       0.00000000       0.00000000      -0.00602453       0.02699751      -0.00081929
Pd       4.58038906       0.00000000       3.02679635  F       0.00000000       0.00000000       0.00000000       0.00017879       0.00015070       0.04842591
Pd       4.57358273       5.40086855       9.13496529  T       0.00000000       0.00000000       0.00000000      -0.00728428       0.00315774       0.00897610
Pd       3.04460311       8.10511928       7.64820287  T       0.00000000       0.00000000       0.00000000      -0.00744816      -0.01223489      -0.00755975
Pd       3.05359494       2.70292824       4.56560681  F       0.00000000       0.00000000       0.00000000       0.00150011       0.00091880       0.12288549
Pd       3.05359271       2.70292306       1.50000000  F       0.00000000       0.00000000       0.00000000       0.00011221       0.00022220      -0.90404421
Pd       4.58039501       5.40584640       6.11658908  F       0.00000000       0.00000000       0.00000000       0.00233098      -0.00550309      -0.03700821
Pd       4.58040505      10.81168838       6.11658203  F       0.00000000       0.00000000       0.00000000       0.00150624      -0.00150537      -0.03477084
Pd       4.58038906       5.40584612       3.02679635  F       0.00000000       0.00000000       0.00000000       0.00001199      -0.00014716       0.04798871
Pd       3.05359271       8.10876919       1.50000000  F       0.00000000       0.00000000       0.00000000       0.00012316       0.00004159      -0.90399959
Pd       3.04445125       2.70019288       7.65178125  T       0.00000000       0.00000000       0.00000000       0.00020884      -0.00343948       0.00580033
Pd       4.55483690      -0.01807148      12.01940173  T       0.00000000       0.00000000       0.00000000       0.00308774       0.00650669      -0.00903370
Pd       3.04025826       2.68892051      10.77449255  T       0.00000000       0.00000000       0.00000000       0.01153756       0.00274653       0.01144539
Pd       3.05359569       8.10876742       4.56559865  F       0.00000000       0.00000000       0.00000000       0.00103560       0.00166743       0.11626292
Pd       6.10718542       2.70292306       1.50000000  F       0.00000000       0.00000000       0.00000000       0.00008377       0.00002961      -0.90450448
Pd       7.63398177       0.00000000       3.02679635  F       0.00000000       0.00000000       0.00000000       0.00055833       0.00008095       0.04809943
Pd       1.55704861       5.40215832      12.06667158  T       0.00000000       0.00000000       0.00000000       0.00826268       0.02141777       0.00180025
Pd       6.10321787       8.10835300       7.64584509  T       0.00000000       0.00000000       0.00000000      -0.00959012      -0.00544756       0.00055926
Pd       0.00000079       8.10876600       4.56559869  F       0.00000000       0.00000000       0.00000000       0.00096724       0.00468594       0.13682042
Pd       6.10718651       8.10875952       4.56558968  F       0.00000000       0.00000000       0.00000000       0.00065212       0.00009554       0.10987587
Pd       1.52680247       5.40584247       6.11658534  F       0.00000000       0.00000000       0.00000000       0.00079359      -0.00895949      -0.05174529
Pd       7.63398177       5.40584612       3.02679635  F       0.00000000       0.00000000       0.00000000       0.00020634      -0.00010354       0.04764370
Pd       6.10718542       8.10876919       1.50000000  F       0.00000000       0.00000000       0.00000000       0.00003466       0.00005344      -0.90454326
Pd      -0.00673454       8.10007888       7.65608449  T       0.00000000       0.00000000       0.00000000       0.00567015      -0.00083988      -0.01066304
Pd       7.60060918      10.79894866      12.01113072  T       0.00000000       0.00000000       0.00000000      -0.00458718       0.00586785       0.00996383
Pd       6.09129696       2.69812405      10.75977287  T       0.00000000       0.00000000       0.00000000      -0.00113827       0.00059057       0.02690257
Pd       1.51885548       5.38297084       9.14885510  T       0.00000000       0.00000000       0.00000000       0.00099712       0.00068726      -0.01103387
Pd       7.61569618      -0.00004357       9.13095439  T       0.00000000       0.00000000       0.00000000       0.01023634      -0.01398002       0.00416367
Pd       6.09900615       2.70193345       7.64823809  T       0.00000000       0.00000000       0.00000000       0.00701980       0.00050517       0.00564745
Pd      12.19851742       8.06067780      10.77928327  T       0.00000000       0.00000000       0.00000000       0.01531395       0.02667537      -0.00498998
Pd       7.63399583      10.81167532       6.11657540  F       0.00000000       0.00000000       0.00000000       0.00088584      -0.00123942      -0.03551009
Pd       6.10718592       2.70292523       4.56558724  F       0.00000000       0.00000000       0.00000000       0.00080768      -0.00000697       0.11455318
Pd       1.52679635       5.40584612       3.02679635  F       0.00000000       0.00000000       0.00000000       0.00054526       0.00002277       0.04923991
Pd       0.00000000       2.70292306       1.50000000  F       0.00000000       0.00000000       0.00000000      -0.00001123       0.00035137      -0.90364575
C       12.23303480       3.51376821      13.74663063  T       0.00000000       0.00000000       0.00000000      -0.02868661       0.00232260       0.03189716
O       11.31581389       3.72652272      14.51549831  T       0.00000000       0.00000000       0.00000000       0.03368456      -0.00535206      -0.02619457
O        1.19430495       2.92791628      13.97458730  T       0.00000000       0.00000000       0.00000000       0.00813465       0.01770521       0.00233316
C        1.46161319       2.44155038      15.31940613  T       0.00000000       0.00000000       0.00000000       0.00173968      -0.00769539      -0.01103306
H        0.55486555       1.99171525      15.74983441  T       0.00000000       0.00000000       0.00000000       0.01803435      -0.00544524      -0.01828838
H        2.26114440       1.70106266      15.18813361  T       0.00000000       0.00000000       0.00000000      -0.01750352       0.00843065      -0.00257175
H        1.80561589       3.28131282      15.94498248  T       0.00000000       0.00000000       0.00000000      -0.02273343      -0.02107983      -0.01285909
