135
Lattice="12.21437083684855 0.0 7e-16 1.7e-15 10.811692246786171 7e-16 0.0 0.0 30.687574482242482" Properties=species:S:1:pos:R:3:move_mask:L:1:momenta:R:3:forces:R:3 idx=7758 E_MACE=-712.0051760040401 d_min=2.6141873663546176 d_reactive=4.027363113557595 rank=8279 dE_rel_meV=4124.6793840344935 converged=T energy=-712.0051760040401 stress="-0.00019355586630091966 9.864813682744898e-06 1.2003958916354218e-05 9.864813682744898e-06 -0.0010273214569049734 0.00012532031497888648 1.2003958916354218e-05 0.00012532031497888648 -0.0037157623109132848" pbc="T T T"
O        3.05541278       6.71898228      12.17556956  T       0.00000000       0.00000000       0.00000000       0.00157239       0.00593472       0.01309226
O        6.13582375       1.30236239      12.13817978  T       0.00000000       0.00000000       0.00000000       0.00235982       0.01162585       0.00261678
O        6.13639822       4.12488662      12.12493581  T       0.00000000       0.00000000       0.00000000      -0.00196929       0.00398365      -0.00702076
O        6.10616276       1.35687754       9.16174512  T       0.00000000       0.00000000       0.00000000       0.00072764      -0.00972610      -0.00127386
O        6.10495664       4.05848647       9.15847521  T       0.00000000       0.00000000       0.00000000      -0.01093729       0.00185867      -0.00378941
O        6.10718343       1.35539432       6.10801899  F       0.00000000       0.00000000       0.00000000      -0.00109434       0.00546661       0.06508530
O        6.10718534       4.05045008       6.10801162  F       0.00000000       0.00000000       0.00000000      -0.00222371       0.00492492       0.05245036
O        6.10718542       1.35146153       3.02679635  F       0.00000000       0.00000000       0.00000000      -0.00017381      -0.47102938       0.31507866
O        6.10718542       4.05438459       3.02679635  F       0.00000000       0.00000000       0.00000000      -0.00017009       0.47119690       0.31517028
O        9.16794566       9.50566530      12.17377135  T       0.00000000       0.00000000       0.00000000       0.00708415       0.02041082      -0.00636044
O        3.05998496       9.52096644      12.17498901  T       0.00000000       0.00000000       0.00000000       0.01410282       0.00392807       0.00921784
O        3.05027343       6.76660871       9.17459242  T       0.00000000       0.00000000       0.00000000       0.01153260      -0.00983000       0.01144272
O        3.05481240       9.45907485       9.17162666  T       0.00000000       0.00000000       0.00000000      -0.00151768       0.01154022      -0.00104783
O        3.05359341       6.76124998       6.10801980  F       0.00000000       0.00000000       0.00000000      -0.00099644       0.02009128       0.08918599
O        3.05359360       9.45629444       6.10802097  F       0.00000000       0.00000000       0.00000000       0.00232824      -0.01856482       0.08082120
O        3.05359271       6.75730765       3.02679635  F       0.00000000       0.00000000       0.00000000       0.00001422      -0.47148310       0.31314822
O        3.05359271       9.46023072       3.02679635  F       0.00000000       0.00000000       0.00000000       0.00000981       0.47140170       0.31328901
O        3.02758479       1.30944645      12.15290923  T       0.00000000       0.00000000       0.00000000      -0.01889028      -0.01995087       0.00267588
O        6.10718542       9.46023072       3.02679635  F       0.00000000       0.00000000       0.00000000      -0.00019558       0.47152985       0.31391073
O        6.10718542       6.75730765       3.02679635  F       0.00000000       0.00000000       0.00000000      -0.00017269      -0.47151340       0.31359960
O        6.10718028       9.45628983       6.10801454  F       0.00000000       0.00000000       0.00000000      -0.00733782      -0.00841563       0.06928989
O        6.10718760       6.76124043       6.10802244  F       0.00000000       0.00000000       0.00000000      -0.00915606       0.01911582       0.08395144
O        9.15876409       6.76649436       9.16722184  T       0.00000000       0.00000000       0.00000000       0.00998166      -0.01075086       0.01198697
O        9.16084794       9.45912564       9.16324931  T       0.00000000       0.00000000       0.00000000       0.00593514       0.00280327       0.01278310
O        9.16078073       6.76123572       6.10801818  F       0.00000000       0.00000000       0.00000000      -0.00214662       0.01232793       0.07173594
O        9.16078059       9.45627785       6.10801483  F       0.00000000       0.00000000       0.00000000      -0.00022433      -0.00768644       0.06177663
O        9.16077813       6.75730765       3.02679635  F       0.00000000       0.00000000       0.00000000       0.00001564      -0.47160559       0.31419936
O        9.16077813       9.46023072       3.02679635  F       0.00000000       0.00000000       0.00000000       0.00005747       0.47156269       0.31458291
O        9.16131849       1.30903401      12.15488381  T       0.00000000       0.00000000       0.00000000      -0.00738764       0.00142809       0.00108612
O        9.15615541       4.10579581      12.15687254  T       0.00000000       0.00000000       0.00000000       0.00074567       0.01722878      -0.01273245
O        3.01438158       4.12498314      12.13560887  T       0.00000000       0.00000000       0.00000000      -0.00293700      -0.01231234      -0.01975394
O        9.16213806       1.35546916       9.16083579  T       0.00000000       0.00000000       0.00000000      -0.00889800      -0.00227816       0.00752353
O        9.16077827       1.35539012       6.10801450  F       0.00000000       0.00000000       0.00000000       0.00329683       0.00741901       0.06539797
O        9.16078421       4.05045012       6.10800209  F       0.00000000       0.00000000       0.00000000      -0.00091566       0.00296882       0.05488064
O        9.16077813       1.35146153       3.02679635  F       0.00000000       0.00000000       0.00000000       0.00011072      -0.47106404       0.31510726
O        9.16077813       4.05438459       3.02679635  F       0.00000000       0.00000000       0.00000000       0.00006528       0.47111139       0.31519718
O        6.09760666       6.71530851      12.17040058  T       0.00000000       0.00000000       0.00000000      -0.01070124       0.01346840       0.01652227
O        6.10043200       9.51881116      12.16886928  T       0.00000000       0.00000000       0.00000000      -0.02543170       0.00136728      -0.00011161
O        6.10045874       6.76698689       9.17060934  T       0.00000000       0.00000000       0.00000000       0.00263810      -0.00804711       0.01467105
O        6.10249527       9.46058708       9.16760829  T       0.00000000       0.00000000       0.00000000       0.00610999      -0.00399166       0.00891586
O        9.15752204       4.05788770       9.15997876  T       0.00000000       0.00000000       0.00000000       0.00759799       0.00212125       0.00555521
O        3.05412879       1.35955258       9.16905054  T       0.00000000       0.00000000       0.00000000      -0.00174239      -0.01437144      -0.02438378
O        9.16357121       6.72593830      12.17930356  T       0.00000000       0.00000000       0.00000000      -0.00671979      -0.01032479      -0.00781607
O       12.20657675       9.50722844      12.18150115  T       0.00000000       0.00000000       0.00000000       0.00297610       0.02762107      -0.01353723
O        0.00000000       6.75730765       3.02679635  F       0.00000000       0.00000000       0.00000000      -0.00003774      -0.47151637       0.31363315
O        3.05147762       4.05480153       9.16172842  T       0.00000000       0.00000000       0.00000000      -0.00403305       0.01997786       0.00374688
O       -0.00312332       1.31292933      12.16297713  T       0.00000000       0.00000000       0.00000000       0.01644755      -0.02654453       0.00572816
O        0.00000951       9.45630243       6.10801529  F       0.00000000       0.00000000       0.00000000       0.00845310      -0.01842042       0.07602133
O       12.20944277       4.10940152      12.15896505  T       0.00000000       0.00000000       0.00000000       0.00056716      -0.00392432      -0.02043616
O        0.00000182       6.76124509       6.10800952  F       0.00000000       0.00000000       0.00000000       0.00525771       0.01835050       0.08356850
O        0.00171029       9.45850814       9.16866013  T       0.00000000       0.00000000       0.00000000      -0.00331613       0.01217492      -0.00544822
O       -0.00031023       1.35749479       9.16770018  T       0.00000000       0.00000000       0.00000000      -0.00075579      -0.00234058      -0.02026818
O       -0.00149082       6.76682396       9.17225859  T       0.00000000       0.00000000       0.00000000      -0.00949667      -0.01562374       0.00123165
O       12.21069970       4.05568513       9.16203309  T       0.00000000       0.00000000       0.00000000       0.00375524       0.01153431       0.01097280
O       12.19855421       6.72834439      12.18258091  T       0.00000000       0.00000000       0.00000000       0.01000881       0.00067395      -0.00272690
O        0.00000448       1.35539672       6.10801283  F       0.00000000       0.00000000       0.00000000      -0.00128102       0.01329123       0.07511314
O        0.00000331       4.05045002       6.10801189  F       0.00000000       0.00000000       0.00000000      -0.00432388      -0.00468772       0.06308862
O        3.05359271       4.05438459       3.02679635  F       0.00000000       0.00000000       0.00000000       0.00001223       0.47130203       0.31478644
O        0.00000000       9.46023072       3.02679635  F       0.00000000       0.00000000       0.00000000       0.00004365       0.47146371       0.31379666
O        3.05359105       4.05044320       6.10802763  F       0.00000000       0.00000000       0.00000000      -0.00039442      -0.00481906       0.06210813
O        3.05359271       1.35146153       3.02679635  F       0.00000000       0.00000000       0.00000000       0.00001376      -0.47104456       0.31461497
O        3.05359652       1.35540103       6.10801944  F       0.00000000       0.00000000       0.00000000       0.00147312       0.01143244       0.07441577
O        0.00000000       4.05438459       3.02679635  F       0.00000000       0.00000000       0.00000000      -0.00006203       0.47121875       0.31481198
O        0.00000000       1.35146153       3.02679635  F       0.00000000       0.00000000       0.00000000      -0.00001231      -0.47101853       0.31465230
Pd       7.63780205       5.42519014      12.00794734  T       0.00000000       0.00000000       0.00000000       0.01484441      -0.01376808      -0.00678035
Pd      10.68171059       5.41425736      12.02786107  T       0.00000000       0.00000000       0.00000000       0.01054030       0.01161787      -0.01577354
Pd       0.00000000       8.10876919       1.50000000  F       0.00000000       0.00000000       0.00000000      -0.00009640      -0.00002599      -0.90423760
Pd       9.16824951       8.11392172      10.76776780  T       0.00000000       0.00000000       0.00000000      -0.00273387       0.00424255      -0.00972962
Pd       1.52679635       0.00000000       3.02679635  F       0.00000000       0.00000000       0.00000000      -0.00003765      -0.00013164       0.04875754
Pd       9.16077813       2.70292306       1.50000000  F       0.00000000       0.00000000       0.00000000      -0.00003965      -0.00001362      -0.90450825
Pd      10.68757448       0.00000000       3.02679635  F       0.00000000       0.00000000       0.00000000       0.00008803      -0.00004585       0.04852191
Pd      10.68528734       5.41223679       9.13494258  T       0.00000000       0.00000000       0.00000000       0.00194261      -0.00546708       0.00729313
Pd       1.52118032      -0.00020772      12.01934319  T       0.00000000       0.00000000       0.00000000      -0.01544200       0.02777959      -0.00416826
Pd       9.16077900       2.70292450       4.56559698  F       0.00000000       0.00000000       0.00000000       0.00020482      -0.00089480       0.11308698
Pd      10.68756280      10.81168006       6.11657659  F       0.00000000       0.00000000       0.00000000       0.00179894      -0.00093843      -0.03592065
Pd       9.16077776       8.10875607       4.56559406  F       0.00000000       0.00000000       0.00000000      -0.00034438      -0.00041099       0.11799376
Pd       1.52678677       0.00000067       6.11658292  F       0.00000000       0.00000000       0.00000000      -0.00083610      -0.00007182      -0.03425533
Pd       9.16023865       8.11008831       7.64904244  T       0.00000000       0.00000000       0.00000000       0.00135368       0.00253218       0.00477350
Pd       9.16166008       2.70470897       7.64685275  T       0.00000000       0.00000000       0.00000000      -0.00460920       0.00028482       0.00723618
Pd      10.68890396       0.00096429       9.13325653  T       0.00000000       0.00000000       0.00000000      -0.00518612       0.00317202       0.01478576
Pd       0.00000135       2.70292705       4.56560641  F       0.00000000       0.00000000       0.00000000      -0.00000457      -0.00135711       0.11636560
Pd       1.52772901      10.81464006       9.13964245  T       0.00000000       0.00000000       0.00000000      -0.00520519      -0.00862430       0.00019550
Pd       9.16221024       2.70760096      10.75386447  T       0.00000000       0.00000000       0.00000000       0.00572139       0.00705635       0.01924139
Pd       6.09558809       8.11522208      10.76919991  T       0.00000000       0.00000000       0.00000000      -0.01483855       0.00180636      -0.00577986
Pd      10.68811884      10.81830508      12.02194445  T       0.00000000       0.00000000       0.00000000      -0.00116912      -0.04039438      -0.00603960
Pd      -0.00285186       2.70463529       7.64853211  T       0.00000000       0.00000000       0.00000000       0.01201943      -0.01337148       0.00649193
Pd      10.68757280       5.40584816       6.11657764  F       0.00000000       0.00000000       0.00000000       0.00070398       0.00635951      -0.03459244
Pd       9.16077813       8.10876919       1.50000000  F       0.00000000       0.00000000       0.00000000      -0.00000072      -0.00006257      -0.90441755
Pd      10.68757448       5.40584612       3.02679635  F       0.00000000       0.00000000       0.00000000       0.00014911       0.00012306       0.04858948
Pd      12.20698237       2.70777014      10.75986298  T       0.00000000       0.00000000       0.00000000       0.00103692       0.02524676       0.01957304
Pd       4.57889466       0.00416324       9.13706317  T       0.00000000       0.00000000       0.00000000       0.00222921      -0.00898399      -0.00095408
Pd       7.63397856       5.40585179       6.11657833  F       0.00000000       0.00000000       0.00000000       0.00181672       0.00719241      -0.03418901
Pd       7.63074274       5.41481898       9.13400464  T       0.00000000       0.00000000       0.00000000       0.00168438      -0.01246160      -0.00625173
Pd       4.57495901       5.39736170      12.03173930  T       0.00000000       0.00000000       0.00000000      -0.00353423      -0.01064889       0.00645598
Pd       3.05988089       8.11818038      10.77325892  T       0.00000000       0.00000000       0.00000000       0.01422455      -0.01371393      -0.01053839
Pd       4.58038906       0.00000000       3.02679635  F       0.00000000       0.00000000       0.00000000      -0.00003771      -0.00008565       0.04901223
Pd       4.57612867       5.41129277       9.13763974  T       0.00000000       0.00000000       0.00000000       0.00255158       0.00417236      -0.00710417
Pd       3.05394855       8.10967655       7.65256403  T       0.00000000       0.00000000       0.00000000      -0.00736298       0.01162720       0.00344422
Pd       3.05359494       2.70292824       4.56560681  F       0.00000000       0.00000000       0.00000000      -0.00052917      -0.00127638       0.11607353
Pd       3.05359271       2.70292306       1.50000000  F       0.00000000       0.00000000       0.00000000      -0.00001462      -0.00007839      -0.90423103
Pd       4.58039501       5.40584640       6.11658908  F       0.00000000       0.00000000       0.00000000       0.00021921       0.00769474      -0.03848468
Pd       4.58040505      10.81168838       6.11658203  F       0.00000000       0.00000000       0.00000000      -0.00154325      -0.00092603      -0.03956829
Pd       4.58038906       5.40584612       3.02679635  F       0.00000000       0.00000000       0.00000000       0.00001656       0.00017434       0.04923451
Pd       3.05359271       8.10876919       1.50000000  F       0.00000000       0.00000000       0.00000000       0.00000282      -0.00001670      -0.90414592
Pd       3.05436812       2.70453116       7.64827052  T       0.00000000       0.00000000       0.00000000      -0.00897428      -0.01181590      -0.00046263
Pd       4.57957359       0.02969186      12.02990575  T       0.00000000       0.00000000       0.00000000       0.00613961      -0.01253924       0.00417948
Pd       3.04373776       2.71020169      10.76002897  T       0.00000000       0.00000000       0.00000000      -0.00324719       0.01428604       0.01974590
Pd       3.05359569       8.10876742       4.56559865  F       0.00000000       0.00000000       0.00000000      -0.00027664       0.00024613       0.12661590
Pd       6.10718542       2.70292306       1.50000000  F       0.00000000       0.00000000       0.00000000       0.00003737      -0.00004155      -0.90444101
Pd       7.63398177       0.00000000       3.02679635  F       0.00000000       0.00000000       0.00000000       0.00006908      -0.00014153       0.04820900
Pd       1.51333476       5.42880308      12.00339366  T       0.00000000       0.00000000       0.00000000       0.00528889      -0.00493309      -0.01511279
Pd       6.10106500       8.11096233       7.65088592  T       0.00000000       0.00000000       0.00000000       0.01694206      -0.00316710       0.00398504
Pd       0.00000079       8.10876600       4.56559869  F       0.00000000       0.00000000       0.00000000       0.00078870       0.00041961       0.12390796
Pd       6.10718651       8.10875952       4.56558968  F       0.00000000       0.00000000       0.00000000       0.00033780      -0.00099399       0.12281887
Pd       1.52680247       5.40584247       6.11658534  F       0.00000000       0.00000000       0.00000000      -0.00114393       0.00543238      -0.04069422
Pd       7.63398177       5.40584612       3.02679635  F       0.00000000       0.00000000       0.00000000       0.00006731       0.00022660       0.04820175
Pd       6.10718542       8.10876919       1.50000000  F       0.00000000       0.00000000       0.00000000       0.00009416      -0.00006595      -0.90429668
Pd       0.00322486       8.10944431       7.65154037  T       0.00000000       0.00000000       0.00000000      -0.01650419       0.01189287       0.00144443
Pd       7.64023060      10.80654586      12.00780538  T       0.00000000       0.00000000       0.00000000       0.01485436       0.02110729      -0.00192465
Pd       6.11493175       2.70931122      10.75085339  T       0.00000000       0.00000000       0.00000000       0.00637421       0.00618641       0.01853552
Pd       1.52378211       5.41062321       9.13676001  T       0.00000000       0.00000000       0.00000000      -0.00208018       0.01335240      -0.00920351
Pd       7.63334703       0.00095676       9.13184090  T       0.00000000       0.00000000       0.00000000      -0.00063262       0.00175527       0.00698371
Pd       6.10566959       2.70494536       7.64644247  T       0.00000000       0.00000000       0.00000000       0.00195783      -0.00182295      -0.00033812
Pd      12.20129254       8.11816227      10.77270614  T       0.00000000       0.00000000       0.00000000       0.01103555      -0.02574634      -0.01340873
Pd       7.63399583      10.81167532       6.11657540  F       0.00000000       0.00000000       0.00000000       0.00102611      -0.00045928      -0.03336620
Pd       6.10718592       2.70292523       4.56558724  F       0.00000000       0.00000000       0.00000000       0.00074396      -0.00102436       0.11262245
Pd       1.52679635       5.40584612       3.02679635  F       0.00000000       0.00000000       0.00000000       0.00006154       0.00020315       0.04844075
Pd       0.00000000       2.70292306       1.50000000  F       0.00000000       0.00000000       0.00000000       0.00002092      -0.00006614      -0.90431959
C       13.41554479       4.33635274      15.31294968  T       0.00000000       0.00000000       0.00000000       0.00264353      -0.01500987       0.00209589
O       13.91957937       5.32641915      15.60006346  T       0.00000000       0.00000000       0.00000000      -0.00941290      -0.00007444      -0.03472099
O        4.56945989       2.77830280      13.74872978  T       0.00000000       0.00000000       0.00000000      -0.00233502      -0.04939670       0.00398668
C        4.44439177       2.46239752      15.07666680  T       0.00000000       0.00000000       0.00000000      -0.00128758       0.00343042       0.02220634
H        5.43032061       2.17947371      15.52856197  T       0.00000000       0.00000000       0.00000000      -0.00122211      -0.02366762      -0.01072590
H        4.05498455       3.32314991      15.67757711  T       0.00000000       0.00000000       0.00000000      -0.00984503       0.00642249       0.01410521
H        3.74493931       1.60170619      15.24042314  T       0.00000000       0.00000000       0.00000000      -0.00074666       0.00572142       0.00794252
