135
Lattice="12.21437083684855 0.0 7e-16 1.7e-15 10.811692246786171 7e-16 0.0 0.0 30.687574482242482" Properties=species:S:1:pos:R:3:move_mask:L:1:momenta:R:3:forces:R:3 idx=4862 E_MACE=-715.379194836504 d_min=1.4149002345896255 d_reactive=1.3355968565325549 rank=3 dE_rel_meV=750.6605515706042 converged=T energy=-715.379194836504 stress="-0.0005665508876805288 -8.776322252651705e-05 -4.012281851242985e-05 -8.776322252651705e-05 -0.0013453713011214886 0.00022938888902314305 -4.012281851242985e-05 0.00022938888902314305 -0.0037743209049715737" pbc="T T T"
O        3.06290688       6.73445802      12.17442242  T       0.00000000       0.00000000       0.00000000       0.00424954       0.00710212      -0.00726633
O        6.05602417       1.31166457      12.16325405  T       0.00000000       0.00000000       0.00000000      -0.00460994       0.00897502       0.00733448
O        6.11651444       4.14115071      12.15079970  T       0.00000000       0.00000000       0.00000000       0.00751162      -0.00585569      -0.00833941
O        6.10199489       1.36481892       9.17425586  T       0.00000000       0.00000000       0.00000000      -0.00872465       0.01722432       0.00015677
O        6.11682728       4.06065449       9.16147530  T       0.00000000       0.00000000       0.00000000      -0.00576800      -0.00660484       0.01322997
O        6.10718343       1.35539432       6.10801899  F       0.00000000       0.00000000       0.00000000      -0.00341472       0.01532647       0.08182446
O        6.10718534       4.05045008       6.10801162  F       0.00000000       0.00000000       0.00000000       0.01072831      -0.00563112       0.05890472
O        6.10718542       1.35146153       3.02679635  F       0.00000000       0.00000000       0.00000000       0.00005766      -0.47132429       0.31357227
O        6.10718542       4.05438459       3.02679635  F       0.00000000       0.00000000       0.00000000       0.00027081       0.47184887       0.31447013
O        9.15347480       9.56815776      12.18807242  T       0.00000000       0.00000000       0.00000000      -0.01441680      -0.02243535       0.01384707
O        3.03663543       9.51021362      12.15966559  T       0.00000000       0.00000000       0.00000000      -0.00418542      -0.00617362       0.00270177
O        3.05978079       6.76344957       9.16357570  T       0.00000000       0.00000000       0.00000000      -0.00120739       0.00949192       0.00626777
O        3.04840890       9.46480859       9.15829316  T       0.00000000       0.00000000       0.00000000       0.00529376      -0.01413769       0.00317889
O        3.05359341       6.76124998       6.10801980  F       0.00000000       0.00000000       0.00000000       0.00897789       0.01133566       0.06941774
O        3.05359360       9.45629444       6.10802097  F       0.00000000       0.00000000       0.00000000      -0.00135850       0.00171694       0.05403890
O        3.05359271       6.75730765       3.02679635  F       0.00000000       0.00000000       0.00000000       0.00014578      -0.47101290       0.31516757
O        3.05359271       9.46023072       3.02679635  F       0.00000000       0.00000000       0.00000000       0.00005075       0.47128090       0.31522886
O        3.04233647       1.31790663      12.17863257  T       0.00000000       0.00000000       0.00000000       0.00692025       0.00420942      -0.03366155
O        6.10718542       9.46023072       3.02679635  F       0.00000000       0.00000000       0.00000000       0.00025783       0.47131751       0.31513742
O        6.10718542       6.75730765       3.02679635  F       0.00000000       0.00000000       0.00000000       0.00014533      -0.47089583       0.31506090
O        6.10718028       9.45628983       6.10801454  F       0.00000000       0.00000000       0.00000000       0.00800395       0.01353433       0.04351897
O        6.10718760       6.76124043       6.10802244  F       0.00000000       0.00000000       0.00000000       0.00538367       0.00501321       0.06959342
O        9.16376482       6.78113264       9.18756985  T       0.00000000       0.00000000       0.00000000       0.00683085       0.00043262      -0.01018862
O        9.15686992       9.47717910       9.16953447  T       0.00000000       0.00000000       0.00000000      -0.00606543      -0.01150094       0.00964142
O        9.16078073       6.76123572       6.10801818  F       0.00000000       0.00000000       0.00000000       0.00118361       0.04699989       0.12913440
O        9.16078059       9.45627785       6.10801483  F       0.00000000       0.00000000       0.00000000      -0.00419235      -0.01902725       0.07649863
O        9.16077813       6.75730765       3.02679635  F       0.00000000       0.00000000       0.00000000      -0.00001197      -0.47115732       0.31257251
O        9.16077813       9.46023072       3.02679635  F       0.00000000       0.00000000       0.00000000      -0.00002548       0.47122407       0.31203901
O        9.14758975       1.45089626      12.42698237  T       0.00000000       0.00000000       0.00000000      -0.00872010       0.00149803      -0.00690473
O        9.18650183       4.19086924      12.13574634  T       0.00000000       0.00000000       0.00000000      -0.00471605       0.00877477      -0.01516009
O        3.06559491       4.12139421      12.15834366  T       0.00000000       0.00000000       0.00000000      -0.00515082      -0.01602119      -0.00382438
O        9.15185984       1.38264846       9.20414776  T       0.00000000       0.00000000       0.00000000       0.01114116       0.00841298      -0.00057006
O        9.16077827       1.35539012       6.10801450  F       0.00000000       0.00000000       0.00000000      -0.00769843       0.00715606       0.09014904
O        9.16078421       4.05045012       6.10800209  F       0.00000000       0.00000000       0.00000000       0.00238468      -0.04580595       0.07159951
O        9.16077813       1.35146153       3.02679635  F       0.00000000       0.00000000       0.00000000      -0.00005881      -0.47109146       0.31334583
O        9.16077813       4.05438459       3.02679635  F       0.00000000       0.00000000       0.00000000      -0.00002020       0.47219545       0.31334491
O        6.10364235       6.75397036      12.17877762  T       0.00000000       0.00000000       0.00000000      -0.00214096      -0.01565154      -0.00245697
O        6.09904811       9.51291873      12.14531449  T       0.00000000       0.00000000       0.00000000      -0.01732848      -0.01814875       0.01616818
O        6.11127965       6.76642104       9.16545290  T       0.00000000       0.00000000       0.00000000       0.00737596       0.00616587      -0.00613814
O        6.11117927       9.47053068       9.15375165  T       0.00000000       0.00000000       0.00000000       0.00037976      -0.00557114       0.01056099
O        9.16405163       4.06130409       9.15661635  T       0.00000000       0.00000000       0.00000000      -0.00207957      -0.00941121      -0.01303886
O        3.04995229       1.35831570       9.17139207  T       0.00000000       0.00000000       0.00000000      -0.00334887       0.01574615       0.00591642
O        9.17085977       6.78027799      12.20135386  T       0.00000000       0.00000000       0.00000000       0.00477470      -0.00724805      -0.00602172
O       12.19930909       9.52080110      12.13744420  T       0.00000000       0.00000000       0.00000000       0.01249392      -0.00982401       0.02225706
O        0.00000000       6.75730765       3.02679635  F       0.00000000       0.00000000       0.00000000      -0.00011590      -0.47100408       0.31573839
O        3.06034922       4.05469776       9.16631023  T       0.00000000       0.00000000       0.00000000      -0.00098808      -0.00685882      -0.00597673
O        0.01566790       1.32834404      12.17168308  T       0.00000000       0.00000000       0.00000000      -0.00331136       0.00159349       0.00355534
O        0.00000951       9.45630243       6.10801529  F       0.00000000       0.00000000       0.00000000      -0.01780156       0.02139981       0.03297222
O       12.22270724       4.14364535      12.14228898  T       0.00000000       0.00000000       0.00000000      -0.01532249      -0.00404144      -0.00184283
O        0.00000182       6.76124509       6.10800952  F       0.00000000       0.00000000       0.00000000       0.00504833      -0.00308283       0.05898809
O       -0.01558587       9.47275071       9.14889369  T       0.00000000       0.00000000       0.00000000       0.00706011       0.00373633       0.02106255
O       -0.00510919       1.36377871       9.17392779  T       0.00000000       0.00000000       0.00000000       0.00448259       0.02162715       0.00193522
O        0.00715498       6.76460603       9.15969648  T       0.00000000       0.00000000       0.00000000      -0.01349008       0.02260034       0.01258069
O       12.21582094       4.06142439       9.15771493  T       0.00000000       0.00000000       0.00000000      -0.00882029      -0.00729021       0.01511529
O       12.24919573       6.75829207      12.17091357  T       0.00000000       0.00000000       0.00000000      -0.01351857       0.00568342      -0.00669328
O        0.00000448       1.35539672       6.10801283  F       0.00000000       0.00000000       0.00000000      -0.00966866       0.00673609       0.07694478
O        0.00000331       4.05045002       6.10801189  F       0.00000000       0.00000000       0.00000000      -0.00554052      -0.00683839       0.05891584
O        3.05359271       4.05438459       3.02679635  F       0.00000000       0.00000000       0.00000000       0.00014986       0.47149538       0.31414546
O        0.00000000       9.46023072       3.02679635  F       0.00000000       0.00000000       0.00000000      -0.00046421       0.47135164       0.31571690
O        3.05359105       4.05044320       6.10802763  F       0.00000000       0.00000000       0.00000000       0.00821998      -0.01426857       0.07245505
O        3.05359271       1.35146153       3.02679635  F       0.00000000       0.00000000       0.00000000       0.00006417      -0.47129563       0.31388469
O        3.05359652       1.35540103       6.10801944  F       0.00000000       0.00000000       0.00000000      -0.00101898       0.01818489       0.08296879
O        0.00000000       4.05438459       3.02679635  F       0.00000000       0.00000000       0.00000000      -0.00022621       0.47186183       0.31485649
O        0.00000000       1.35146153       3.02679635  F       0.00000000       0.00000000       0.00000000      -0.00022534      -0.47128333       0.31389574
Pd       7.63885475       5.47247542      12.02907429  T       0.00000000       0.00000000       0.00000000      -0.01024853      -0.01966280      -0.00099931
Pd      10.71465590       5.48068417      12.02368962  T       0.00000000       0.00000000       0.00000000       0.00233236      -0.00509329       0.01399481
Pd       0.00000000       8.10876919       1.50000000  F       0.00000000       0.00000000       0.00000000       0.00013955       0.00000229      -0.90426915
Pd       9.15970067       8.15894052      10.78333996  T       0.00000000       0.00000000       0.00000000      -0.00151834      -0.01108001      -0.01078334
Pd       1.52679635       0.00000000       3.02679635  F       0.00000000       0.00000000       0.00000000       0.00015225       0.00009282       0.04791626
Pd       9.16077813       2.70292306       1.50000000  F       0.00000000       0.00000000       0.00000000       0.00001327      -0.00032046      -0.90388980
Pd      10.68757448       0.00000000       3.02679635  F       0.00000000       0.00000000       0.00000000       0.00027866      -0.00006447       0.04982183
Pd      10.69148285       5.41944057       9.13804863  T       0.00000000       0.00000000       0.00000000      -0.00137101       0.01973754       0.02063218
Pd       1.52168755       0.01298107      12.00959240  T       0.00000000       0.00000000       0.00000000       0.00653557       0.00349738      -0.01160508
Pd       9.16077900       2.70292450       4.56559698  F       0.00000000       0.00000000       0.00000000       0.00052370       0.00211430       0.11948032
Pd      10.68756280      10.81168006       6.11657659  F       0.00000000       0.00000000       0.00000000      -0.00187470       0.00817729      -0.04901413
Pd       9.16077776       8.10875607       4.56559406  F       0.00000000       0.00000000       0.00000000      -0.00008649      -0.00328137       0.13858916
Pd       1.52678677       0.00000067       6.11658292  F       0.00000000       0.00000000       0.00000000       0.00550126       0.00764750      -0.03606145
Pd       9.15994140       8.11542340       7.65674944  T       0.00000000       0.00000000       0.00000000       0.00314952       0.00278516      -0.00587201
Pd       9.15842675       2.70011542       7.65226171  T       0.00000000       0.00000000       0.00000000       0.00525405       0.01131235      -0.00530781
Pd      10.67861139       0.02171975       9.14692843  T       0.00000000       0.00000000       0.00000000      -0.00069632       0.00115941       0.00581860
Pd       0.00000135       2.70292705       4.56560641  F       0.00000000       0.00000000       0.00000000       0.00059720      -0.00097611       0.11458071
Pd       1.51966377      10.81930829       9.13459328  T       0.00000000       0.00000000       0.00000000       0.00517420       0.00253321      -0.00018442
Pd       9.14717433       2.79283065      10.76721767  T       0.00000000       0.00000000       0.00000000       0.00479074      -0.02707532       0.01168299
Pd       6.11345160       8.12261820      10.74649681  T       0.00000000       0.00000000       0.00000000       0.00586581       0.01494379       0.00164832
Pd      10.71158950      10.83258872      12.08862265  T       0.00000000       0.00000000       0.00000000       0.01501785       0.03443104       0.00351846
Pd      -0.00417178       2.70486741       7.64861929  T       0.00000000       0.00000000       0.00000000       0.00910725       0.00291661       0.00175087
Pd      10.68757280       5.40584816       6.11657764  F       0.00000000       0.00000000       0.00000000      -0.00449965       0.00475952      -0.04377303
Pd       9.16077813       8.10876919       1.50000000  F       0.00000000       0.00000000       0.00000000       0.00002373       0.00009556      -0.90350871
Pd      10.68757448       5.40584612       3.02679635  F       0.00000000       0.00000000       0.00000000      -0.00051153      -0.00023672       0.04855420
Pd      12.21672435       2.72286825      10.75973198  T       0.00000000       0.00000000       0.00000000       0.00089765      -0.00417961       0.02775785
Pd       4.57701514       0.00725001       9.13604074  T       0.00000000       0.00000000       0.00000000       0.00001315      -0.00673676      -0.00265514
Pd       7.63397856       5.40585179       6.11657833  F       0.00000000       0.00000000       0.00000000       0.00505973       0.00586154      -0.04849405
Pd       7.63991500       5.41992027       9.13896147  T       0.00000000       0.00000000       0.00000000      -0.00085954       0.00779061       0.00995961
Pd       4.58804166       5.43733732      12.01746700  T       0.00000000       0.00000000       0.00000000      -0.00786457      -0.01139512       0.00025450
Pd       3.05159141       8.11709463      10.75719291  T       0.00000000       0.00000000       0.00000000      -0.00410582      -0.00142586      -0.00760890
Pd       4.58038906       0.00000000       3.02679635  F       0.00000000       0.00000000       0.00000000       0.00002251       0.00005987       0.04801186
Pd       4.58654449       5.41035608       9.13639819  T       0.00000000       0.00000000       0.00000000      -0.00454754      -0.00476610      -0.00781930
Pd       3.05559166       8.11124679       7.64728305  T       0.00000000       0.00000000       0.00000000      -0.00987613      -0.00859187       0.00142704
Pd       3.05359494       2.70292824       4.56560681  F       0.00000000       0.00000000       0.00000000      -0.00008452      -0.00050293       0.12078271
Pd       3.05359271       2.70292306       1.50000000  F       0.00000000       0.00000000       0.00000000      -0.00004757      -0.00007943      -0.90427473
Pd       4.58039501       5.40584640       6.11658908  F       0.00000000       0.00000000       0.00000000      -0.00489534       0.00259344      -0.03696903
Pd       4.58040505      10.81168838       6.11658203  F       0.00000000       0.00000000       0.00000000      -0.00503532       0.00735301      -0.03920706
Pd       4.58038906       5.40584612       3.02679635  F       0.00000000       0.00000000       0.00000000      -0.00011920      -0.00010336       0.04858368
Pd       3.05359271       8.10876919       1.50000000  F       0.00000000       0.00000000       0.00000000      -0.00005179      -0.00008259      -0.90437032
Pd       3.05578782       2.70426158       7.65089329  T       0.00000000       0.00000000       0.00000000      -0.00707029      -0.00352094       0.00379320
Pd       4.55431266       0.00188338      12.00894561  T       0.00000000       0.00000000       0.00000000       0.00061575       0.01005520      -0.01281352
Pd       3.05487160       2.71144670      10.76761409  T       0.00000000       0.00000000       0.00000000      -0.00295283       0.00424132       0.00960188
Pd       3.05359569       8.10876742       4.56559865  F       0.00000000       0.00000000       0.00000000       0.00000654      -0.00140260       0.11336869
Pd       6.10718542       2.70292306       1.50000000  F       0.00000000       0.00000000       0.00000000      -0.00006572      -0.00026400      -0.90424750
Pd       7.63398177       0.00000000       3.02679635  F       0.00000000       0.00000000       0.00000000      -0.00010403      -0.00008783       0.04930620
Pd       1.54348825       5.43406557      12.01035604  T       0.00000000       0.00000000       0.00000000      -0.00049841      -0.00845754       0.00526323
Pd       6.11099596       8.11270903       7.64587185  T       0.00000000       0.00000000       0.00000000      -0.00279825      -0.00234535       0.00110169
Pd       0.00000079       8.10876600       4.56559869  F       0.00000000       0.00000000       0.00000000       0.00016310      -0.00190082       0.10574187
Pd       6.10718651       8.10875952       4.56558968  F       0.00000000       0.00000000       0.00000000      -0.00015464      -0.00211492       0.11089928
Pd       1.52680247       5.40584247       6.11658534  F       0.00000000       0.00000000       0.00000000       0.00235112       0.00167076      -0.03425949
Pd       7.63398177       5.40584612       3.02679635  F       0.00000000       0.00000000       0.00000000       0.00041691      -0.00021044       0.04864049
Pd       6.10718542       8.10876919       1.50000000  F       0.00000000       0.00000000       0.00000000      -0.00012506      -0.00005140      -0.90420027
Pd      -0.00360716       8.11258757       7.64358550  T       0.00000000       0.00000000       0.00000000      -0.00098431       0.00221873       0.00712604
Pd       7.58559624      10.82853873      12.07437011  T       0.00000000       0.00000000       0.00000000       0.02135719       0.00547714       0.00255219
Pd       6.10337949       2.71864825      10.76512337  T       0.00000000       0.00000000       0.00000000      -0.00227427       0.00630925       0.01137403
Pd       1.53375935       5.40980719       9.13304561  T       0.00000000       0.00000000       0.00000000      -0.00661036       0.00089541      -0.00410166
Pd       7.63133719       0.01979566       9.14568307  T       0.00000000       0.00000000       0.00000000      -0.00404697       0.00665693       0.00429872
Pd       6.10969853       2.70600229       7.64919856  T       0.00000000       0.00000000       0.00000000       0.00256690      -0.00435575       0.00085628
Pd      12.21113483       8.12777922      10.74093394  T       0.00000000       0.00000000       0.00000000       0.00187534      -0.01119478      -0.00572038
Pd       7.63399583      10.81167532       6.11657540  F       0.00000000       0.00000000       0.00000000       0.00360320       0.00671168      -0.05155680
Pd       6.10718592       2.70292523       4.56558724  F       0.00000000       0.00000000       0.00000000      -0.00076849      -0.00143961       0.11711973
Pd       1.52679635       5.40584612       3.02679635  F       0.00000000       0.00000000       0.00000000      -0.00016225      -0.00016534       0.04831716
Pd       0.00000000       2.70292306       1.50000000  F       0.00000000       0.00000000       0.00000000       0.00010738      -0.00029058      -0.90413842
C        9.13642193       2.03840160      13.71409364  T       0.00000000       0.00000000       0.00000000       0.01896238       0.01901348       0.01314316
O       10.11465685       2.03790341      14.43160488  T       0.00000000       0.00000000       0.00000000      -0.00839174      -0.02832039      -0.00865231
O        7.90677230       2.49871586      13.95882109  T       0.00000000       0.00000000       0.00000000       0.02925490      -0.00983300      -0.00472735
C        7.72879578       3.32689294      15.14372093  T       0.00000000       0.00000000       0.00000000       0.00158289      -0.02496575      -0.01869900
H        7.91401655       2.73549308      16.05221224  T       0.00000000       0.00000000       0.00000000       0.01009082      -0.01117699       0.00652531
H        8.41462004       4.18611748      15.10098284  T       0.00000000       0.00000000       0.00000000       0.02438607      -0.01292433      -0.00764012
H        6.68581104       3.65673685      15.08332195  T       0.00000000       0.00000000       0.00000000      -0.02632062      -0.00519705       0.00010064
