135
Lattice="12.21437083684855 0.0 7e-16 1.7e-15 10.811692246786171 7e-16 0.0 0.0 30.687574482242482" Properties=species:S:1:pos:R:3:move_mask:L:1:momenta:R:3:forces:R:3 idx=791 E_MACE=-713.2088970191703 d_min=1.9977005150126066 d_reactive=3.688472496191164 rank=4140 dE_rel_meV=2920.95836890428 converged=T energy=-713.2088970191703 stress="-5.128578935933818e-05 7.276780364498923e-06 -2.5082773070423162e-05 7.276780364498923e-06 -0.001061368966555308 0.00021969998121366196 -2.5082773070423162e-05 0.00021969998121366196 -0.003533915693385071" pbc="T T T"
O        3.05643619       6.73266071      12.18097202  T       0.00000000       0.00000000       0.00000000      -0.00381122       0.01826234      -0.01507405
O        6.09706889       1.32417900      12.16172289  T       0.00000000       0.00000000       0.00000000       0.00658254       0.00890830      -0.00149408
O        6.11026550       4.12475398      12.15660901  T       0.00000000       0.00000000       0.00000000      -0.00009678      -0.01236593      -0.00707511
O        6.10291257       1.36677963       9.16845690  T       0.00000000       0.00000000       0.00000000      -0.01163180      -0.00710147       0.00567193
O        6.10611070       4.06573264       9.16191900  T       0.00000000       0.00000000       0.00000000       0.00541451      -0.00881996      -0.00615834
O        6.10718343       1.35539432       6.10801899  F       0.00000000       0.00000000       0.00000000      -0.00754847       0.02564178       0.09132608
O        6.10718534       4.05045008       6.10801162  F       0.00000000       0.00000000       0.00000000      -0.00293453       0.00762625       0.05190967
O        6.10718542       1.35146153       3.02679635  F       0.00000000       0.00000000       0.00000000      -0.00013392      -0.47138665       0.31405801
O        6.10718542       4.05438459       3.02679635  F       0.00000000       0.00000000       0.00000000      -0.00002637       0.47173384       0.31459535
O        9.15113376       9.52964714      12.17237948  T       0.00000000       0.00000000       0.00000000       0.00863014       0.00577424      -0.02035064
O        3.06309007       9.50680447      12.17293630  T       0.00000000       0.00000000       0.00000000       0.00959394      -0.00354929      -0.01182258
O        3.04965273       6.77320330       9.17344690  T       0.00000000       0.00000000       0.00000000       0.00748562      -0.01545648       0.00157683
O        3.04773492       9.46911355       9.18260155  T       0.00000000       0.00000000       0.00000000       0.00896762      -0.00871922      -0.00436057
O        3.05359341       6.76124998       6.10801980  F       0.00000000       0.00000000       0.00000000      -0.00737883       0.05071773       0.11664061
O        3.05359360       9.45629444       6.10802097  F       0.00000000       0.00000000       0.00000000      -0.01486020       0.00389058       0.08149381
O        3.05359271       6.75730765       3.02679635  F       0.00000000       0.00000000       0.00000000      -0.00010093      -0.47098727       0.31372127
O        3.05359271       9.46023072       3.02679635  F       0.00000000       0.00000000       0.00000000      -0.00061403       0.47137312       0.31291624
O        3.06883970       1.34095035      12.16543131  T       0.00000000       0.00000000       0.00000000      -0.00070051      -0.00865723      -0.01532059
O        6.10718542       9.46023072       3.02679635  F       0.00000000       0.00000000       0.00000000      -0.00012007       0.47162866       0.31391602
O        6.10718542       6.75730765       3.02679635  F       0.00000000       0.00000000       0.00000000      -0.00000772      -0.47164882       0.31337049
O        6.10718028       9.45628983       6.10801454  F       0.00000000       0.00000000       0.00000000      -0.00636402      -0.00631163       0.06675518
O        6.10718760       6.76124043       6.10802244  F       0.00000000       0.00000000       0.00000000      -0.00000426       0.02669351       0.09596036
O        9.16223779       6.77335842       9.17861042  T       0.00000000       0.00000000       0.00000000      -0.00615486      -0.01170612      -0.01175690
O        9.15225921       9.46442034       9.16882277  T       0.00000000       0.00000000       0.00000000       0.00840599      -0.00476898      -0.01187495
O        9.16078073       6.76123572       6.10801818  F       0.00000000       0.00000000       0.00000000       0.00415851       0.02774873       0.09932415
O        9.16078059       9.45627785       6.10801483  F       0.00000000       0.00000000       0.00000000      -0.00325297      -0.02160471       0.07876603
O        9.16077813       6.75730765       3.02679635  F       0.00000000       0.00000000       0.00000000      -0.00006158      -0.47160329       0.31293987
O        9.16077813       9.46023072       3.02679635  F       0.00000000       0.00000000       0.00000000      -0.00007162       0.47143667       0.31342769
O        9.14419933       1.33271860      12.17033603  T       0.00000000       0.00000000       0.00000000       0.02079757      -0.01082048      -0.00942595
O        9.16329685       4.12985243      12.15861395  T       0.00000000       0.00000000       0.00000000      -0.00063509      -0.01484982      -0.00713201
O        3.05149455       4.12444353      12.16014228  T       0.00000000       0.00000000       0.00000000       0.01392044       0.00088998      -0.01459008
O        9.15526631       1.36483266       9.17046331  T       0.00000000       0.00000000       0.00000000      -0.00306445       0.00282306       0.00598621
O        9.16077827       1.35539012       6.10801450  F       0.00000000       0.00000000       0.00000000      -0.00079050       0.02394822       0.08802021
O        9.16078421       4.05045012       6.10800209  F       0.00000000       0.00000000       0.00000000       0.00465604      -0.00093570       0.05821429
O        9.16077813       1.35146153       3.02679635  F       0.00000000       0.00000000       0.00000000      -0.00009248      -0.47124456       0.31408264
O        9.16077813       4.05438459       3.02679635  F       0.00000000       0.00000000       0.00000000      -0.00006791       0.47151212       0.31450219
O        6.10746148       6.73163696      12.17574612  T       0.00000000       0.00000000       0.00000000      -0.00690847       0.01219680      -0.00888413
O        6.10153241       9.52407833      12.16695066  T       0.00000000       0.00000000       0.00000000      -0.01077794       0.00123397      -0.01534447
O        6.10691537       6.77155593       9.17281039  T       0.00000000       0.00000000       0.00000000      -0.00493537      -0.00156258      -0.00621406
O        6.10094610       9.46799502       9.16486390  T       0.00000000       0.00000000       0.00000000       0.00040129      -0.00955083       0.00161306
O        9.16305076       4.06177394       9.16307772  T       0.00000000       0.00000000       0.00000000      -0.00955133       0.01461868      -0.01049232
O        3.04577328       1.36400266       9.18984465  T       0.00000000       0.00000000       0.00000000       0.00976952       0.00122758      -0.01871521
O        9.16099836       6.74136718      12.19114813  T       0.00000000       0.00000000       0.00000000      -0.00106161      -0.00351799      -0.03217770
O       12.18943142       9.52282024      12.15846562  T       0.00000000       0.00000000       0.00000000      -0.00884257       0.00586417      -0.00051175
O        0.00000000       6.75730765       3.02679635  F       0.00000000       0.00000000       0.00000000      -0.00003150      -0.47091692       0.31442753
O        3.04879015       4.06470786       9.16473412  T       0.00000000       0.00000000       0.00000000       0.00478726       0.00368519      -0.01723634
O       -0.02531934       1.33933596      12.16038021  T       0.00000000       0.00000000       0.00000000      -0.00053299       0.00646976      -0.00883425
O        0.00000951       9.45630243       6.10801529  F       0.00000000       0.00000000       0.00000000       0.00510500       0.01447032       0.06454355
O       12.21236982       4.13328564      12.12237388  T       0.00000000       0.00000000       0.00000000      -0.01263610      -0.01206179       0.01981271
O        0.00000182       6.76124509       6.10800952  F       0.00000000       0.00000000       0.00000000       0.00473615       0.03964505       0.10227579
O       -0.00788516       9.46821816       9.17628536  T       0.00000000       0.00000000       0.00000000      -0.00388156      -0.01049738       0.00481562
O       -0.00968917       1.35902812       9.17875855  T       0.00000000       0.00000000       0.00000000       0.00994811       0.00569335       0.00125306
O       -0.00163473       6.77372990       9.17155284  T       0.00000000       0.00000000       0.00000000      -0.00108738      -0.01917842       0.00379327
O       12.21439088       4.06333282       9.15333547  T       0.00000000       0.00000000       0.00000000      -0.01018017       0.00201377       0.01023332
O       12.21639712       6.74255121      12.17924523  T       0.00000000       0.00000000       0.00000000      -0.00241203      -0.01816231       0.00591908
O        0.00000448       1.35539672       6.10801283  F       0.00000000       0.00000000       0.00000000       0.00515530      -0.00577053       0.08202290
O        0.00000331       4.05045002       6.10801189  F       0.00000000       0.00000000       0.00000000       0.00699717      -0.00870919       0.05883358
O        3.05359271       4.05438459       3.02679635  F       0.00000000       0.00000000       0.00000000      -0.00009366       0.47091819       0.31436139
O        0.00000000       9.46023072       3.02679635  F       0.00000000       0.00000000       0.00000000       0.00042373       0.47138862       0.31362982
O        3.05359105       4.05044320       6.10802763  F       0.00000000       0.00000000       0.00000000      -0.00848574      -0.02916883       0.08885636
O        3.05359271       1.35146153       3.02679635  F       0.00000000       0.00000000       0.00000000      -0.00058185      -0.47090706       0.31257638
O        3.05359652       1.35540103       6.10801944  F       0.00000000       0.00000000       0.00000000      -0.01722410       0.01987322       0.11674118
O        0.00000000       4.05438459       3.02679635  F       0.00000000       0.00000000       0.00000000      -0.00000055       0.47078535       0.31593373
O        0.00000000       1.35146153       3.02679635  F       0.00000000       0.00000000       0.00000000       0.00042807      -0.47067430       0.31441659
Pd       7.63666792       5.43330006      12.02168559  T       0.00000000       0.00000000       0.00000000      -0.00979224      -0.01896692       0.00381102
Pd      10.68676459       5.43986092      12.01643283  T       0.00000000       0.00000000       0.00000000      -0.00564242      -0.00197064       0.01913325
Pd       0.00000000       8.10876919       1.50000000  F       0.00000000       0.00000000       0.00000000      -0.00011001       0.00021403      -0.90336003
Pd       9.15733502       8.12659924      10.77483040  T       0.00000000       0.00000000       0.00000000      -0.00588916      -0.01290930       0.00108680
Pd       1.52679635       0.00000000       3.02679635  F       0.00000000       0.00000000       0.00000000       0.00044302       0.00007486       0.04406747
Pd       9.16077813       2.70292306       1.50000000  F       0.00000000       0.00000000       0.00000000       0.00000303      -0.00011482      -0.90394204
Pd      10.68757448       0.00000000       3.02679635  F       0.00000000       0.00000000       0.00000000      -0.00001668       0.00003597       0.04832530
Pd      10.68765754       5.41765759       9.13711872  T       0.00000000       0.00000000       0.00000000      -0.00819769       0.01103311      -0.00772745
Pd       1.52479919       0.02315254      12.12398479  T       0.00000000       0.00000000       0.00000000       0.00960352       0.01467294      -0.01400148
Pd       9.16077900       2.70292450       4.56559698  F       0.00000000       0.00000000       0.00000000       0.00030395      -0.00300680       0.11919856
Pd      10.68756280      10.81168006       6.11657659  F       0.00000000       0.00000000       0.00000000      -0.00482406       0.00338335      -0.04140813
Pd       9.16077776       8.10875607       4.56559406  F       0.00000000       0.00000000       0.00000000       0.00028359       0.00019947       0.12808191
Pd       1.52678677       0.00000067       6.11658292  F       0.00000000       0.00000000       0.00000000       0.00690855       0.00590499      -0.07085284
Pd       9.15927351       8.11115767       7.65342929  T       0.00000000       0.00000000       0.00000000      -0.00244525       0.01895873      -0.01023560
Pd       9.16083201       2.70753486       7.64948840  T       0.00000000       0.00000000       0.00000000      -0.00588406      -0.01173733       0.00304619
Pd      10.67669331       0.00694379       9.14189178  T       0.00000000       0.00000000       0.00000000       0.01117746       0.01257224       0.01371064
Pd       0.00000135       2.70292705       4.56560641  F       0.00000000       0.00000000       0.00000000       0.00110495      -0.00195558       0.10708256
Pd       1.51974371      10.82148825       9.19577836  T       0.00000000       0.00000000       0.00000000       0.00035760      -0.00365446      -0.00400701
Pd       9.15934774       2.72383645      10.76372354  T       0.00000000       0.00000000       0.00000000      -0.01511069      -0.00333397      -0.00375878
Pd       6.10375636       8.12427508      10.76713941  T       0.00000000       0.00000000       0.00000000       0.00648145      -0.00257162       0.00982530
Pd      10.66864587      10.84083879      12.02064557  T       0.00000000       0.00000000       0.00000000       0.00624225      -0.00753036      -0.00686782
Pd       0.00239669       2.70418827       7.64664793  T       0.00000000       0.00000000       0.00000000      -0.00178202      -0.01847596       0.00586586
Pd      10.68757280       5.40584816       6.11657764  F       0.00000000       0.00000000       0.00000000      -0.00503870       0.01186436      -0.03385369
Pd       9.16077813       8.10876919       1.50000000  F       0.00000000       0.00000000       0.00000000       0.00001923      -0.00006336      -0.90380523
Pd      10.68757448       5.40584612       3.02679635  F       0.00000000       0.00000000       0.00000000       0.00009272       0.00021602       0.04857401
Pd      12.20528472       2.71917756      10.74643193  T       0.00000000       0.00000000       0.00000000       0.00068241      -0.02085392       0.00075661
Pd       4.57572776       0.01235025       9.14717758  T       0.00000000       0.00000000       0.00000000       0.00143511      -0.01266951       0.00664137
Pd       7.63397856       5.40585179       6.11657833  F       0.00000000       0.00000000       0.00000000       0.00058285       0.01029728      -0.03568586
Pd       7.63566279       5.41886236       9.14015035  T       0.00000000       0.00000000       0.00000000      -0.01481405      -0.01348812      -0.00163204
Pd       4.58151779       5.42740673      12.01732396  T       0.00000000       0.00000000       0.00000000       0.00484713      -0.00119140       0.01578233
Pd       3.05493048       8.12195623      10.76633164  T       0.00000000       0.00000000       0.00000000      -0.01108527      -0.01752771       0.00528629
Pd       4.58038906       0.00000000       3.02679635  F       0.00000000       0.00000000       0.00000000       0.00018042       0.00010276       0.04861737
Pd       4.57769762       5.41924008       9.14029888  T       0.00000000       0.00000000       0.00000000       0.01173619      -0.00658951      -0.01174919
Pd       3.04597879       8.11613492       7.65340697  T       0.00000000       0.00000000       0.00000000       0.00804573       0.00631117      -0.00033566
Pd       3.05359494       2.70292824       4.56560681  F       0.00000000       0.00000000       0.00000000      -0.00025372      -0.00242669       0.12440469
Pd       3.05359271       2.70292306       1.50000000  F       0.00000000       0.00000000       0.00000000       0.00012795      -0.00049694      -0.90303635
Pd       4.58039501       5.40584640       6.11658908  F       0.00000000       0.00000000       0.00000000       0.00193795       0.01043495      -0.03063568
Pd       4.58040505      10.81168838       6.11658203  F       0.00000000       0.00000000       0.00000000       0.00210953       0.00810577      -0.03663534
Pd       4.58038906       5.40584612       3.02679635  F       0.00000000       0.00000000       0.00000000      -0.00013293       0.00024205       0.04865478
Pd       3.05359271       8.10876919       1.50000000  F       0.00000000       0.00000000       0.00000000       0.00011619       0.00025829      -0.90312238
Pd       3.04456129       2.70526580       7.65346998  T       0.00000000       0.00000000       0.00000000       0.01131875      -0.01210504      -0.00936041
Pd       4.57288263       0.01606805      12.02257405  T       0.00000000       0.00000000       0.00000000      -0.00388394       0.01069696       0.00693842
Pd       3.04935882       2.72437494      10.76094777  T       0.00000000       0.00000000       0.00000000       0.00052528      -0.01362021      -0.00917653
Pd       3.05359569       8.10876742       4.56559865  F       0.00000000       0.00000000       0.00000000      -0.00047610      -0.00199412       0.12372754
Pd       6.10718542       2.70292306       1.50000000  F       0.00000000       0.00000000       0.00000000       0.00002942      -0.00015888      -0.90385780
Pd       7.63398177       0.00000000       3.02679635  F       0.00000000       0.00000000       0.00000000       0.00011849       0.00005025       0.04827375
Pd       1.52950437       5.43431935      12.01875227  T       0.00000000       0.00000000       0.00000000       0.00491117       0.00056234       0.00303194
Pd       6.10587171       8.11300961       7.65121000  T       0.00000000       0.00000000       0.00000000      -0.00248333       0.00054108      -0.00477334
Pd       0.00000079       8.10876600       4.56559869  F       0.00000000       0.00000000       0.00000000       0.00109110      -0.00216822       0.11615029
Pd       6.10718651       8.10875952       4.56558968  F       0.00000000       0.00000000       0.00000000       0.00023976      -0.00080878       0.12381546
Pd       1.52680247       5.40584247       6.11658534  F       0.00000000       0.00000000       0.00000000       0.00537579       0.01136547      -0.04378449
Pd       7.63398177       5.40584612       3.02679635  F       0.00000000       0.00000000       0.00000000      -0.00001894       0.00024744       0.04847626
Pd       6.10718542       8.10876919       1.50000000  F       0.00000000       0.00000000       0.00000000      -0.00001002      -0.00009835      -0.90377412
Pd       0.00190272       8.11610929       7.65046170  T       0.00000000       0.00000000       0.00000000      -0.00190579      -0.00523595       0.01395763
Pd       7.62365084      10.83312483      12.01363850  T       0.00000000       0.00000000       0.00000000      -0.00754871      -0.00154997       0.02264111
Pd       6.10467991       2.72141793      10.75974375  T       0.00000000       0.00000000       0.00000000       0.00170438       0.00051556       0.00624282
Pd       1.52471764       5.41900722       9.13770373  T       0.00000000       0.00000000       0.00000000       0.00300743       0.00629551      -0.00082106
Pd       7.62750761       0.01045001       9.13752877  T       0.00000000       0.00000000       0.00000000       0.00162746      -0.00137570       0.00914215
Pd       6.10504359       2.70928369       7.64876833  T       0.00000000       0.00000000       0.00000000       0.00404797      -0.01176494       0.00701028
Pd      12.20439331       8.12277635      10.76162854  T       0.00000000       0.00000000       0.00000000       0.01790715       0.00082290      -0.00549740
Pd       7.63399583      10.81167532       6.11657540  F       0.00000000       0.00000000       0.00000000       0.00107204       0.00576560      -0.03715885
Pd       6.10718592       2.70292523       4.56558724  F       0.00000000       0.00000000       0.00000000       0.00006220      -0.00425754       0.11799437
Pd       1.52679635       5.40584612       3.02679635  F       0.00000000       0.00000000       0.00000000       0.00035467       0.00022737       0.04860239
Pd       0.00000000       2.70292306       1.50000000  F       0.00000000       0.00000000       0.00000000      -0.00014499      -0.00048704      -0.90347823
C       -0.32926108       3.12138807      14.82554594  T       0.00000000       0.00000000       0.00000000      -0.00262103      -0.04310115       0.02423587
O        0.67350393       3.46090260      15.26878944  T       0.00000000       0.00000000       0.00000000       0.00195348       0.04875505       0.00053242
O        1.66677904      10.91382981      14.11506752  T       0.00000000       0.00000000       0.00000000      -0.00566213       0.02104281      -0.00383267
C        0.92286546       9.98134777      14.86621770  T       0.00000000       0.00000000       0.00000000       0.01531412       0.01277955      -0.01574064
H        1.24218826      10.18782541      15.91113238  T       0.00000000       0.00000000       0.00000000      -0.00976606      -0.02992986       0.01215055
H       -0.17630756      10.13336257      14.80076264  T       0.00000000       0.00000000       0.00000000       0.00359215      -0.01356310      -0.01806396
H        1.15617396       8.92489170      14.62411467  T       0.00000000       0.00000000       0.00000000      -0.00015011      -0.00827385      -0.01929150
