135
Lattice="12.21437083684855 0.0 7e-16 1.7e-15 10.811692246786171 7e-16 0.0 0.0 30.687574482242482" Properties=species:S:1:pos:R:3:move_mask:L:1:momenta:R:3:forces:R:3 idx=4913 E_MACE=-715.3707667421739 d_min=1.4147653392849788 d_reactive=1.334232377148331 rank=6 dE_rel_meV=759.088645900647 converged=T energy=-715.3707667421739 stress="-0.0005969466037548041 8.356948386016889e-05 -0.00022616134318014785 8.356948386016889e-05 -0.0014468005206931239 -4.0686048507141984e-05 -0.00022616134318014785 -4.0686048507141984e-05 -0.0038969281645877592" pbc="T T T"
O        2.99961616       6.72953731      12.16106096  T       0.00000000       0.00000000       0.00000000      -0.01359245       0.00373232       0.00659269
O        6.05893309       1.28897876      12.16112243  T       0.00000000       0.00000000       0.00000000       0.00441692      -0.00717032       0.01190540
O        6.01840798       4.11968478      12.15456634  T       0.00000000       0.00000000       0.00000000      -0.00399187       0.01714572       0.01004279
O        6.06930857       1.35196779       9.17014431  T       0.00000000       0.00000000       0.00000000      -0.00253860       0.00883403      -0.00290147
O        6.06433875       4.04677462       9.17193676  T       0.00000000       0.00000000       0.00000000       0.00818679       0.00026422      -0.00050220
O        6.10718343       1.35539432       6.10801899  F       0.00000000       0.00000000       0.00000000      -0.01392205       0.01161255       0.07582772
O        6.10718534       4.05045008       6.10801162  F       0.00000000       0.00000000       0.00000000      -0.02045127      -0.02539034       0.08810887
O        6.10718542       1.35146153       3.02679635  F       0.00000000       0.00000000       0.00000000      -0.00058994      -0.47179603       0.31380963
O        6.10718542       4.05438459       3.02679635  F       0.00000000       0.00000000       0.00000000      -0.00073144       0.47138094       0.31329853
O        9.11270115       9.45623652      12.19513296  T       0.00000000       0.00000000       0.00000000       0.00077821       0.02932283      -0.02401891
O        3.00276859       9.50887958      12.16068619  T       0.00000000       0.00000000       0.00000000       0.00626566      -0.00128094       0.01820178
O        3.01128758       6.75993660       9.15938410  T       0.00000000       0.00000000       0.00000000       0.01166055       0.00873193       0.01104449
O        3.00967776       9.46282204       9.15882046  T       0.00000000       0.00000000       0.00000000       0.01744063      -0.00876014       0.00216284
O        3.05359341       6.76124998       6.10801980  F       0.00000000       0.00000000       0.00000000      -0.02060265       0.00579414       0.06365489
O        3.05359360       9.45629444       6.10802097  F       0.00000000       0.00000000       0.00000000      -0.02184177       0.00257487       0.05429978
O        3.05359271       6.75730765       3.02679635  F       0.00000000       0.00000000       0.00000000      -0.00069462      -0.47109360       0.31530587
O        3.05359271       9.46023072       3.02679635  F       0.00000000       0.00000000       0.00000000      -0.00069190       0.47121955       0.31523588
O        3.00447791       1.31402618      12.17014809  T       0.00000000       0.00000000       0.00000000       0.01055903      -0.00976849      -0.00187979
O        6.10718542       9.46023072       3.02679635  F       0.00000000       0.00000000       0.00000000      -0.00073508       0.47099650       0.31443994
O        6.10718542       6.75730765       3.02679635  F       0.00000000       0.00000000       0.00000000      -0.00053251      -0.47138783       0.31430837
O        6.10718028       9.45628983       6.10801454  F       0.00000000       0.00000000       0.00000000      -0.02125449      -0.01261255       0.07505962
O        6.10718760       6.76124043       6.10802244  F       0.00000000       0.00000000       0.00000000      -0.01004779       0.00152722       0.06922248
O        9.12177068       6.74868291       9.17364107  T       0.00000000       0.00000000       0.00000000      -0.00719005      -0.00164867      -0.01260146
O        9.11683087       9.44581093       9.18187345  T       0.00000000       0.00000000       0.00000000       0.00881292      -0.02082963      -0.00854973
O        9.16078073       6.76123572       6.10801818  F       0.00000000       0.00000000       0.00000000      -0.01904239       0.02337295       0.08721351
O        9.16078059       9.45627785       6.10801483  F       0.00000000       0.00000000       0.00000000      -0.02327733      -0.03768976       0.11746396
O        9.16077813       6.75730765       3.02679635  F       0.00000000       0.00000000       0.00000000      -0.00069875      -0.47113641       0.31202632
O        9.16077813       9.46023072       3.02679635  F       0.00000000       0.00000000       0.00000000      -0.00081276       0.47134500       0.31281509
O        9.12530935       1.23327399      12.13815203  T       0.00000000       0.00000000       0.00000000       0.01479253       0.01938157       0.00129932
O        9.10973785       3.98188436      12.39196006  T       0.00000000       0.00000000       0.00000000       0.02859864       0.00441043       0.03351588
O        3.00801626       4.11109689      12.16003021  T       0.00000000       0.00000000       0.00000000       0.00151118       0.00370761       0.01114639
O        9.11785124       1.34875343       9.15584895  T       0.00000000       0.00000000       0.00000000       0.00345791       0.00704194       0.01688129
O        9.16077827       1.35539012       6.10801450  F       0.00000000       0.00000000       0.00000000      -0.02033320       0.03806215       0.07019552
O        9.16078421       4.05045012       6.10800209  F       0.00000000       0.00000000       0.00000000      -0.02130727      -0.00208258       0.08253048
O        9.16077813       1.35146153       3.02679635  F       0.00000000       0.00000000       0.00000000      -0.00083066      -0.47209990       0.31352132
O        9.16077813       4.05438459       3.02679635  F       0.00000000       0.00000000       0.00000000      -0.00075433       0.47111547       0.31380671
O        6.05993107       6.73327558      12.16289991  T       0.00000000       0.00000000       0.00000000      -0.01849980      -0.00705392      -0.00187338
O        6.03856753       9.48891163      12.17889509  T       0.00000000       0.00000000       0.00000000       0.02021041       0.00084987      -0.01029370
O        6.07252102       6.75590210       9.16409571  T       0.00000000       0.00000000       0.00000000       0.02769047       0.01015867      -0.01493426
O        6.06212320       9.45855148       9.16490560  T       0.00000000       0.00000000       0.00000000       0.01901268      -0.01473954      -0.00511425
O        9.11691048       4.03076189       9.19803488  T       0.00000000       0.00000000       0.00000000       0.00711422       0.00208828      -0.01109832
O        3.01242770       1.35717455       9.16806088  T       0.00000000       0.00000000       0.00000000       0.00022759       0.00825111       0.00795709
O        9.11782859       6.67578068      12.18827391  T       0.00000000       0.00000000       0.00000000      -0.00438883      -0.00500844       0.01085685
O       12.19404725       9.48299643      12.15820145  T       0.00000000       0.00000000       0.00000000      -0.00984958       0.00888466       0.02502636
O        0.00000000       6.75730765       3.02679635  F       0.00000000       0.00000000       0.00000000      -0.00118196      -0.47118176       0.31538890
O        3.01813195       4.05214361       9.16375351  T       0.00000000       0.00000000       0.00000000      -0.02320266      -0.00018409       0.01856091
O       -0.05339199       1.28776494      12.15827743  T       0.00000000       0.00000000       0.00000000      -0.00488727      -0.02104031      -0.00628874
O        0.00000951       9.45630243       6.10801529  F       0.00000000       0.00000000       0.00000000      -0.02142314       0.00122827       0.05869575
O       12.19426589       4.09847729      12.16513012  T       0.00000000       0.00000000       0.00000000      -0.01059029       0.01360524       0.02320452
O        0.00000182       6.76124509       6.10800952  F       0.00000000       0.00000000       0.00000000      -0.03005265      -0.01435997       0.04661519
O       -0.03962110       9.45747521       9.15806104  T       0.00000000       0.00000000       0.00000000       0.00785186      -0.00756928       0.00844152
O       -0.04885603       1.35131399       9.16661563  T       0.00000000       0.00000000       0.00000000       0.01948980       0.00497441       0.00235614
O       -0.04702868       6.74951759       9.15544257  T       0.00000000       0.00000000       0.00000000      -0.00236195       0.00342334      -0.00481189
O       12.17364168       4.04559136       9.17077962  T       0.00000000       0.00000000       0.00000000       0.00948571      -0.00098922       0.01188204
O       12.16607950       6.71978137      12.14892211  T       0.00000000       0.00000000       0.00000000       0.01813429       0.00374868       0.00047798
O        0.00000448       1.35539672       6.10801283  F       0.00000000       0.00000000       0.00000000      -0.03420187       0.00794080       0.06929830
O        0.00000331       4.05045002       6.10801189  F       0.00000000       0.00000000       0.00000000      -0.02520192      -0.01715664       0.08043923
O        3.05359271       4.05438459       3.02679635  F       0.00000000       0.00000000       0.00000000      -0.00070300       0.47158952       0.31430239
O        0.00000000       9.46023072       3.02679635  F       0.00000000       0.00000000       0.00000000      -0.00095780       0.47097091       0.31538694
O        3.05359105       4.05044320       6.10802763  F       0.00000000       0.00000000       0.00000000      -0.01596522      -0.01325180       0.07073082
O        3.05359271       1.35146153       3.02679635  F       0.00000000       0.00000000       0.00000000      -0.00074178      -0.47138308       0.31423297
O        3.05359652       1.35540103       6.10801944  F       0.00000000       0.00000000       0.00000000      -0.02131919       0.00887729       0.07054405
O        0.00000000       4.05438459       3.02679635  F       0.00000000       0.00000000       0.00000000      -0.00093873       0.47132848       0.31370906
O        0.00000000       1.35146153       3.02679635  F       0.00000000       0.00000000       0.00000000      -0.00103775      -0.47180014       0.31422459
Pd       7.54793075       5.41908157      12.06580255  T       0.00000000       0.00000000       0.00000000      -0.00623560      -0.00451751      -0.00934655
Pd      10.67850109       5.40940594      12.08047679  T       0.00000000       0.00000000       0.00000000      -0.00531679       0.00011760      -0.00198451
Pd       0.00000000       8.10876919       1.50000000  F       0.00000000       0.00000000       0.00000000       0.00015042      -0.00000339      -0.90409895
Pd       9.11423811       8.07665621      10.77737803  T       0.00000000       0.00000000       0.00000000       0.00487061       0.00244435       0.03438683
Pd       1.52679635       0.00000000       3.02679635  F       0.00000000       0.00000000       0.00000000       0.00123622       0.00006762       0.04807526
Pd       9.16077813       2.70292306       1.50000000  F       0.00000000       0.00000000       0.00000000       0.00003499       0.00022117      -0.90374216
Pd      10.68757448       0.00000000       3.02679635  F       0.00000000       0.00000000       0.00000000       0.00089336       0.00019710       0.04847917
Pd      10.64376619       5.39169333       9.14825829  T       0.00000000       0.00000000       0.00000000       0.01146156      -0.00857981       0.00004298
Pd       1.48412740       0.00128265      12.01242685  T       0.00000000       0.00000000       0.00000000      -0.01181469      -0.02577806      -0.00106040
Pd       9.16077900       2.70292450       4.56559698  F       0.00000000       0.00000000       0.00000000       0.00333183      -0.00235780       0.11575745
Pd      10.68756280      10.81168006       6.11657659  F       0.00000000       0.00000000       0.00000000       0.00645672      -0.00232445      -0.04595931
Pd       9.16077776       8.10875607       4.56559406  F       0.00000000       0.00000000       0.00000000       0.00292136       0.00176324       0.13605019
Pd       1.52678677       0.00000067       6.11658292  F       0.00000000       0.00000000       0.00000000       0.01139369       0.00276039      -0.03585779
Pd       9.13961744       8.10517133       7.65584979  T       0.00000000       0.00000000       0.00000000       0.00128706      -0.01097234      -0.00672068
Pd       9.13931534       2.70644152       7.65054665  T       0.00000000       0.00000000       0.00000000      -0.00117268       0.01311443      -0.01215428
Pd      10.64370102      -0.00891427       9.14387587  T       0.00000000       0.00000000       0.00000000       0.00536577       0.00242621      -0.01593021
Pd       0.00000135       2.70292705       4.56560641  F       0.00000000       0.00000000       0.00000000       0.00362679       0.00127661       0.11761759
Pd       1.48282626      10.81570543       9.13534875  T       0.00000000       0.00000000       0.00000000       0.01420035      -0.00196164      -0.01547156
Pd       9.10268783       2.62410632      10.75886665  T       0.00000000       0.00000000       0.00000000      -0.00445706      -0.00913841       0.01914287
Pd       6.06506219       8.11204567      10.75329800  T       0.00000000       0.00000000       0.00000000      -0.00410949      -0.00171805       0.00059553
Pd      10.65575105      10.75835689      12.02302368  T       0.00000000       0.00000000       0.00000000      -0.01386030      -0.00562441       0.01970285
Pd      -0.02649687       2.70101573       7.64986974  T       0.00000000       0.00000000       0.00000000       0.01223518       0.00912924      -0.00239451
Pd      10.68757280       5.40584816       6.11657764  F       0.00000000       0.00000000       0.00000000       0.00696949      -0.00434404      -0.04961579
Pd       9.16077813       8.10876919       1.50000000  F       0.00000000       0.00000000       0.00000000       0.00006029      -0.00011939      -0.90331809
Pd      10.68757448       5.40584612       3.02679635  F       0.00000000       0.00000000       0.00000000       0.00149668       0.00002642       0.04989595
Pd      12.17107975       2.69613285      10.76495379  T       0.00000000       0.00000000       0.00000000      -0.00102193       0.00528350      -0.02101165
Pd       4.53709381       0.00296559       9.13751526  T       0.00000000       0.00000000       0.00000000       0.00729810       0.00428686      -0.00680606
Pd       7.63397856       5.40585179       6.11657833  F       0.00000000       0.00000000       0.00000000       0.00957392      -0.00183536      -0.04989345
Pd       7.59405733       5.39398137       9.14754734  T       0.00000000       0.00000000       0.00000000       0.00310257      -0.00247012      -0.00395568
Pd       4.51927137       5.42980653      12.00352178  T       0.00000000       0.00000000       0.00000000      -0.01120985      -0.00635340       0.01257893
Pd       3.00409101       8.11598430      10.75337690  T       0.00000000       0.00000000       0.00000000       0.00089205       0.00611578      -0.01186544
Pd       4.58038906       0.00000000       3.02679635  F       0.00000000       0.00000000       0.00000000       0.00158551       0.00014548       0.04840213
Pd       4.54099237       5.40662565       9.13537792  T       0.00000000       0.00000000       0.00000000       0.00492074       0.00173081      -0.00424479
Pd       3.03140709       8.11009953       7.64645968  T       0.00000000       0.00000000       0.00000000       0.00547399      -0.00604851      -0.00182817
Pd       3.05359494       2.70292824       4.56560681  F       0.00000000       0.00000000       0.00000000       0.00289394      -0.00019774       0.11770719
Pd       3.05359271       2.70292306       1.50000000  F       0.00000000       0.00000000       0.00000000      -0.00001569      -0.00005283      -0.90420843
Pd       4.58039501       5.40584640       6.11658908  F       0.00000000       0.00000000       0.00000000       0.00725285      -0.00244691      -0.03950076
Pd       4.58040505      10.81168838       6.11658203  F       0.00000000       0.00000000       0.00000000       0.00834686       0.00079804      -0.03663090
Pd       4.58038906       5.40584612       3.02679635  F       0.00000000       0.00000000       0.00000000       0.00140612      -0.00008986       0.04801800
Pd       3.05359271       8.10876919       1.50000000  F       0.00000000       0.00000000       0.00000000      -0.00000088       0.00002974      -0.90431924
Pd       3.03485022       2.70263756       7.64939015  T       0.00000000       0.00000000       0.00000000       0.00064225       0.00414003      -0.00158944
Pd       4.52618996      -0.00304124      12.02220703  T       0.00000000       0.00000000       0.00000000       0.00565424       0.00068995      -0.01524061
Pd       3.00889757       2.70738655      10.76498784  T       0.00000000       0.00000000       0.00000000       0.01020930      -0.00349907      -0.03071156
Pd       3.05359569       8.10876742       4.56559865  F       0.00000000       0.00000000       0.00000000       0.00316699      -0.00086471       0.11189620
Pd       6.10718542       2.70292306       1.50000000  F       0.00000000       0.00000000       0.00000000      -0.00003249       0.00014545      -0.90401236
Pd       7.63398177       0.00000000       3.02679635  F       0.00000000       0.00000000       0.00000000       0.00172208       0.00007947       0.04839360
Pd       1.48615658       5.41417353      12.00492071  T       0.00000000       0.00000000       0.00000000       0.00198440       0.01049541       0.00412317
Pd       6.08829046       8.10705659       7.64880963  T       0.00000000       0.00000000       0.00000000       0.00409348       0.00429696      -0.01084496
Pd       0.00000079       8.10876600       4.56559869  F       0.00000000       0.00000000       0.00000000       0.00306150       0.00126485       0.10760863
Pd       6.10718651       8.10875952       4.56558968  F       0.00000000       0.00000000       0.00000000       0.00281805       0.00112312       0.11787706
Pd       1.52680247       5.40584247       6.11658534  F       0.00000000       0.00000000       0.00000000       0.01265480      -0.00461526      -0.03691360
Pd       7.63398177       5.40584612       3.02679635  F       0.00000000       0.00000000       0.00000000       0.00095412       0.00015814       0.04931134
Pd       6.10718542       8.10876919       1.50000000  F       0.00000000       0.00000000       0.00000000      -0.00007650       0.00002345      -0.90394082
Pd      -0.02299075       8.10638524       7.64454165  T       0.00000000       0.00000000       0.00000000      -0.00351901      -0.00989097       0.00380528
Pd       7.57673611      10.76649492      12.03151296  T       0.00000000       0.00000000       0.00000000       0.01346777       0.00319419      -0.00427214
Pd       6.05470398       2.70178576      10.76838432  T       0.00000000       0.00000000       0.00000000       0.01863500      -0.00465122      -0.01873657
Pd       1.48567097       5.40163892       9.13337797  T       0.00000000       0.00000000       0.00000000       0.00015792       0.00442424      -0.00314952
Pd       7.59045450      -0.00773056       9.14238895  T       0.00000000       0.00000000       0.00000000       0.00928930       0.00427665      -0.01126133
Pd       6.08817074       2.70059610       7.65128265  T       0.00000000       0.00000000       0.00000000       0.00662576       0.01519651      -0.01529592
Pd      12.17286850       8.10273851      10.74063133  T       0.00000000       0.00000000       0.00000000      -0.01205374      -0.00280301       0.01289746
Pd       7.63399583      10.81167532       6.11657540  F       0.00000000       0.00000000       0.00000000       0.01004283      -0.00359386      -0.04784157
Pd       6.10718592       2.70292523       4.56558724  F       0.00000000       0.00000000       0.00000000       0.00230801       0.00148003       0.12215963
Pd       1.52679635       5.40584612       3.02679635  F       0.00000000       0.00000000       0.00000000       0.00138274      -0.00002874       0.04798536
Pd       0.00000000       2.70292306       1.50000000  F       0.00000000       0.00000000       0.00000000       0.00014725       0.00016076      -0.90390336
C        9.08812902       3.43270987      13.69560933  T       0.00000000       0.00000000       0.00000000       0.00684856      -0.00897058       0.01534896
O       10.05516654       3.47147351      14.42689476  T       0.00000000       0.00000000       0.00000000      -0.00179620      -0.00385108       0.00293861
O        7.85433516       2.98520451      13.93575029  T       0.00000000       0.00000000       0.00000000       0.00971064      -0.02029924       0.00474471
C        7.62176680       2.24610640      15.16561911  T       0.00000000       0.00000000       0.00000000       0.00637648       0.00137361       0.00527300
H        8.13571114       2.73162798      16.00719530  T       0.00000000       0.00000000       0.00000000      -0.00284165       0.01560208       0.00823439
H        6.53264807       2.25938845      15.28768128  T       0.00000000       0.00000000       0.00000000      -0.01654430       0.00193277       0.01089884
H        7.98140612       1.21305597      15.03988628  T       0.00000000       0.00000000       0.00000000       0.03165893       0.00898146      -0.02271692
