135
Lattice="12.21437083684855 0.0 7e-16 1.7e-15 10.811692246786171 7e-16 0.0 0.0 30.687574482242482" Properties=species:S:1:pos:R:3:move_mask:L:1:momenta:R:3:forces:R:3 idx=5939 E_MACE=-712.0333616890937 d_min=2.7000615966833847 d_reactive=3.6796406826750228 rank=8277 dE_rel_meV=4096.4936989809075 converged=T energy=-712.0333616890937 stress="-0.00010924546099315771 -9.752799888589986e-06 0.00011852041952535752 -9.752799888589986e-06 -0.0008654323979267586 -4.7177641291789256e-05 0.00011852041952535752 -4.7177641291789256e-05 -0.003489757836392977" pbc="T T T"
O        3.06874368       6.70481089      12.18931559  T       0.00000000       0.00000000       0.00000000       0.02262624       0.00506765       0.00039756
O        6.14597292       1.29475250      12.13302559  T       0.00000000       0.00000000       0.00000000       0.00709004       0.00723132      -0.01946689
O        6.14874182       4.11586443      12.12747961  T       0.00000000       0.00000000       0.00000000      -0.00156715      -0.00269551      -0.00977786
O        6.10895125       1.35049701       9.16147180  T       0.00000000       0.00000000       0.00000000      -0.00363256      -0.00665174      -0.00652105
O        6.10944717       4.05174067       9.16272316  T       0.00000000       0.00000000       0.00000000      -0.00777245       0.00512947      -0.02282299
O        6.10718343       1.35539432       6.10801899  F       0.00000000       0.00000000       0.00000000      -0.00037372      -0.00060368       0.06025949
O        6.10718534       4.05045008       6.10801162  F       0.00000000       0.00000000       0.00000000       0.00001550      -0.00683086       0.06749524
O        6.10718542       1.35146153       3.02679635  F       0.00000000       0.00000000       0.00000000      -0.00025873      -0.47119356       0.31493065
O        6.10718542       4.05438459       3.02679635  F       0.00000000       0.00000000       0.00000000      -0.00024303       0.47116830       0.31477920
O        9.17597117       9.49672892      12.17626171  T       0.00000000       0.00000000       0.00000000       0.00820157       0.00883002      -0.01298697
O        3.06919395       9.51298938      12.18756558  T       0.00000000       0.00000000       0.00000000       0.01712660      -0.00911093       0.00307177
O        3.05832160       6.76301366       9.18119124  T       0.00000000       0.00000000       0.00000000      -0.00260982      -0.00292589      -0.00262022
O        3.05842137       9.45235614       9.18168505  T       0.00000000       0.00000000       0.00000000      -0.00297463       0.00280297      -0.00265935
O        3.05359341       6.76124998       6.10801980  F       0.00000000       0.00000000       0.00000000       0.00584753       0.03232653       0.10401078
O        3.05359360       9.45629444       6.10802097  F       0.00000000       0.00000000       0.00000000       0.00565669      -0.03435348       0.10709521
O        3.05359271       6.75730765       3.02679635  F       0.00000000       0.00000000       0.00000000       0.00008996      -0.47163424       0.31188834
O        3.05359271       9.46023072       3.02679635  F       0.00000000       0.00000000       0.00000000       0.00004877       0.47163605       0.31174873
O        3.03926473       1.30090277      12.16969940  T       0.00000000       0.00000000       0.00000000       0.00943797       0.01126027      -0.02093883
O        6.10718542       9.46023072       3.02679635  F       0.00000000       0.00000000       0.00000000      -0.00025683       0.47153065       0.31314685
O        6.10718542       6.75730765       3.02679635  F       0.00000000       0.00000000       0.00000000      -0.00021866      -0.47158551       0.31315469
O        6.10718028       9.45628983       6.10801454  F       0.00000000       0.00000000       0.00000000      -0.00852150      -0.02110364       0.08915440
O        6.10718760       6.76124043       6.10802244  F       0.00000000       0.00000000       0.00000000      -0.00823492       0.01787207       0.08424091
O        9.16376191       6.76069854       9.16690273  T       0.00000000       0.00000000       0.00000000       0.01037004      -0.00295822       0.00112663
O        9.16288101       9.45293047       9.16771135  T       0.00000000       0.00000000       0.00000000       0.01381598       0.00874489      -0.00010843
O        9.16078073       6.76123572       6.10801818  F       0.00000000       0.00000000       0.00000000      -0.00098298       0.01105460       0.06809742
O        9.16078059       9.45627785       6.10801483  F       0.00000000       0.00000000       0.00000000      -0.00145067      -0.01407348       0.07410967
O        9.16077813       6.75730765       3.02679635  F       0.00000000       0.00000000       0.00000000       0.00009918      -0.47166947       0.31420144
O        9.16077813       9.46023072       3.02679635  F       0.00000000       0.00000000       0.00000000       0.00012948       0.47164839       0.31415546
O        9.17121674       1.30288223      12.14758277  T       0.00000000       0.00000000       0.00000000      -0.00292883      -0.00268604      -0.00585034
O        9.17102098       4.10417602      12.14810555  T       0.00000000       0.00000000       0.00000000      -0.00041987       0.00152106       0.00772087
O        3.03552901       4.10894724      12.15987228  T       0.00000000       0.00000000       0.00000000       0.00495590      -0.01787040      -0.01380452
O        9.16409508       1.34785233       9.15862599  T       0.00000000       0.00000000       0.00000000      -0.00378602       0.00581787       0.00331375
O        9.16077827       1.35539012       6.10801450  F       0.00000000       0.00000000       0.00000000       0.00348120      -0.00181333       0.05722669
O        9.16078421       4.05045012       6.10800209  F       0.00000000       0.00000000       0.00000000       0.00276649      -0.00469495       0.06447304
O        9.16077813       1.35146153       3.02679635  F       0.00000000       0.00000000       0.00000000       0.00018449      -0.47105177       0.31536166
O        9.16077813       4.05438459       3.02679635  F       0.00000000       0.00000000       0.00000000       0.00015859       0.47103944       0.31523144
O        6.10844458       6.70740693      12.17694682  T       0.00000000       0.00000000       0.00000000      -0.01178825       0.00481130      -0.00829984
O        6.11146588       9.50799049      12.16854374  T       0.00000000       0.00000000       0.00000000      -0.01718897      -0.00544401       0.00771757
O        6.10376414       6.76001072       9.17310412  T       0.00000000       0.00000000       0.00000000       0.00658637       0.00007216      -0.00378766
O        6.10320042       9.45395236       9.17337691  T       0.00000000       0.00000000       0.00000000       0.00658594       0.00444447      -0.00447744
O        9.16380528       4.05312867       9.16025962  T       0.00000000       0.00000000       0.00000000       0.00134031      -0.00078165      -0.00803228
O        3.05474199       1.35467702       9.17246304  T       0.00000000       0.00000000       0.00000000       0.01180164      -0.00539036      -0.00590780
O        9.17688014       6.71823912      12.18044152  T       0.00000000       0.00000000       0.00000000       0.00733363      -0.00878768      -0.01673445
O       12.21810339       9.50050835      12.18620554  T       0.00000000       0.00000000       0.00000000      -0.00568812       0.00209223      -0.02151805
O        0.00000000       6.75730765       3.02679635  F       0.00000000       0.00000000       0.00000000       0.00019549      -0.47172245       0.31309237
O        3.05571223       4.04857814       9.17220737  T       0.00000000       0.00000000       0.00000000       0.00238772       0.00115002      -0.00894003
O        0.00904108       1.30574138      12.16583665  T       0.00000000       0.00000000       0.00000000       0.00043284      -0.00219659      -0.00865466
O        0.00000951       9.45630243       6.10801529  F       0.00000000       0.00000000       0.00000000       0.00759108      -0.02780099       0.09350369
O       12.22202580       4.10162044      12.16088478  T       0.00000000       0.00000000       0.00000000       0.00129334      -0.00102011      -0.00131405
O        0.00000182       6.76124509       6.10800952  F       0.00000000       0.00000000       0.00000000       0.00741686       0.02169681       0.08656263
O        0.00483672       9.45188679       9.17454723  T       0.00000000       0.00000000       0.00000000      -0.00764293       0.00838239      -0.00717967
O        0.00276070       1.35056570       9.16582180  T       0.00000000       0.00000000       0.00000000       0.00157805       0.00257740       0.00212914
O        0.00439198       6.76137948       9.17358413  T       0.00000000       0.00000000       0.00000000      -0.00597343       0.00191361      -0.00650038
O       12.21748848       4.05095039       9.16451485  T       0.00000000       0.00000000       0.00000000       0.00417158       0.00199896       0.00825140
O       12.21564954       6.71827633      12.18968728  T       0.00000000       0.00000000       0.00000000      -0.00856454      -0.00625726      -0.02708800
O        0.00000448       1.35539672       6.10801283  F       0.00000000       0.00000000       0.00000000       0.00185210       0.00405883       0.06767164
O        0.00000331       4.05045002       6.10801189  F       0.00000000       0.00000000       0.00000000       0.00247390      -0.01410218       0.07531332
O        3.05359271       4.05438459       3.02679635  F       0.00000000       0.00000000       0.00000000       0.00011002       0.47142736       0.31342996
O        0.00000000       9.46023072       3.02679635  F       0.00000000       0.00000000       0.00000000       0.00023483       0.47162470       0.31291024
O        3.05359105       4.05044320       6.10802763  F       0.00000000       0.00000000       0.00000000       0.00119537      -0.02296136       0.08871906
O        3.05359271       1.35146153       3.02679635  F       0.00000000       0.00000000       0.00000000       0.00007643      -0.47126502       0.31352946
O        3.05359652       1.35540103       6.10801944  F       0.00000000       0.00000000       0.00000000       0.00027551       0.01953483       0.08534418
O        0.00000000       4.05438459       3.02679635  F       0.00000000       0.00000000       0.00000000       0.00014620       0.47123458       0.31439861
O        0.00000000       1.35146153       3.02679635  F       0.00000000       0.00000000       0.00000000       0.00016057      -0.47119694       0.31442894
Pd       7.65023811       5.41877064      12.00879113  T       0.00000000       0.00000000       0.00000000       0.01306893      -0.01266214      -0.00460687
Pd      10.69727671       5.40746370      12.02478872  T       0.00000000       0.00000000       0.00000000       0.00171779       0.03114663      -0.01408208
Pd       0.00000000       8.10876919       1.50000000  F       0.00000000       0.00000000       0.00000000      -0.00012034       0.00005232      -0.90381803
Pd       9.17935292       8.10552995      10.76812914  T       0.00000000       0.00000000       0.00000000      -0.02085411       0.00363371       0.01266533
Pd       1.52679635       0.00000000       3.02679635  F       0.00000000       0.00000000       0.00000000       0.00000133      -0.00019530       0.04903115
Pd       9.16077813       2.70292306       1.50000000  F       0.00000000       0.00000000       0.00000000      -0.00004384       0.00002366      -0.90438760
Pd      10.68757448       0.00000000       3.02679635  F       0.00000000       0.00000000       0.00000000       0.00013000      -0.00026805       0.04850200
Pd      10.69140394       5.40720606       9.13385435  T       0.00000000       0.00000000       0.00000000       0.00247848      -0.00266462       0.01807415
Pd       1.53191814      -0.00780075      12.02837308  T       0.00000000       0.00000000       0.00000000      -0.00666548       0.01378849      -0.01507827
Pd       9.16077900       2.70292450       4.56559698  F       0.00000000       0.00000000       0.00000000      -0.00011870       0.00072872       0.11260953
Pd      10.68756280      10.81168006       6.11657659  F       0.00000000       0.00000000       0.00000000       0.00243100      -0.00714128      -0.03387433
Pd       9.16077776       8.10875607       4.56559406  F       0.00000000       0.00000000       0.00000000      -0.00080926      -0.00002855       0.11914384
Pd       1.52678677       0.00000067       6.11658292  F       0.00000000       0.00000000       0.00000000       0.00045886      -0.00574631      -0.03424965
Pd       9.16121445       8.10805247       7.64966046  T       0.00000000       0.00000000       0.00000000       0.00425635      -0.00358050       0.00637138
Pd       9.16365131       2.70175167       7.64650188  T       0.00000000       0.00000000       0.00000000      -0.00632028       0.00253647       0.00283745
Pd      10.69126307      -0.00620499       9.13535326  T       0.00000000       0.00000000       0.00000000      -0.00004773       0.01177052       0.01219676
Pd       0.00000135       2.70292705       4.56560641  F       0.00000000       0.00000000       0.00000000      -0.00021057       0.00064677       0.11815422
Pd       1.53032291      10.80720872       9.14617477  T       0.00000000       0.00000000       0.00000000       0.00308341       0.00587321      -0.01136809
Pd       9.17071180       2.70245085      10.75054779  T       0.00000000       0.00000000       0.00000000       0.00521261      -0.00074398       0.01987476
Pd       6.09825438       8.10464530      10.77113253  T       0.00000000       0.00000000       0.00000000      -0.00080427       0.00715309       0.00892128
Pd      10.69772738      10.81001676      12.02742160  T       0.00000000       0.00000000       0.00000000       0.00243777      -0.03119456      -0.01641479
Pd       0.00096946       2.70144029       7.64886756  T       0.00000000       0.00000000       0.00000000       0.00743288       0.00304907       0.01137845
Pd      10.68757280       5.40584816       6.11657764  F       0.00000000       0.00000000       0.00000000       0.00129606       0.00321861      -0.03489932
Pd       9.16077813       8.10876919       1.50000000  F       0.00000000       0.00000000       0.00000000       0.00001951       0.00002429      -0.90426385
Pd      10.68757448       5.40584612       3.02679635  F       0.00000000       0.00000000       0.00000000       0.00013609       0.00014794       0.04845659
Pd      12.21736684       2.70156674      10.76011447  T       0.00000000       0.00000000       0.00000000       0.00217804      -0.00098744       0.02153182
Pd       4.58021381      -0.00109789       9.14358145  T       0.00000000       0.00000000       0.00000000       0.00214792      -0.00653383      -0.00650107
Pd       7.63397856       5.40585179       6.11657833  F       0.00000000       0.00000000       0.00000000       0.00004959       0.00320235      -0.03311135
Pd       7.63546080       5.40807437       9.13592596  T       0.00000000       0.00000000       0.00000000      -0.00109700       0.00133193      -0.00461683
Pd       4.58985803       5.38399616      12.04319898  T       0.00000000       0.00000000       0.00000000      -0.00336759       0.01982466      -0.00010142
Pd       3.06818323       8.10783856      10.78539497  T       0.00000000       0.00000000       0.00000000       0.01215099      -0.00031134       0.00792442
Pd       4.58038906       0.00000000       3.02679635  F       0.00000000       0.00000000       0.00000000      -0.00024587      -0.00027939       0.04937315
Pd       4.58072460       5.40428646       9.14370741  T       0.00000000       0.00000000       0.00000000      -0.00126396       0.00743434      -0.00515102
Pd       3.05838299       8.10827013       7.65683593  T       0.00000000       0.00000000       0.00000000      -0.01644533      -0.00040640       0.00533135
Pd       3.05359494       2.70292824       4.56560681  F       0.00000000       0.00000000       0.00000000      -0.00092676       0.00012397       0.12622090
Pd       3.05359271       2.70292306       1.50000000  F       0.00000000       0.00000000       0.00000000       0.00000360      -0.00001211      -0.90362789
Pd       4.58039501       5.40584640       6.11658908  F       0.00000000       0.00000000       0.00000000      -0.00429384       0.00319790      -0.03850529
Pd       4.58040505      10.81168838       6.11658203  F       0.00000000       0.00000000       0.00000000      -0.00553263      -0.00581345      -0.03752533
Pd       4.58038906       5.40584612       3.02679635  F       0.00000000       0.00000000       0.00000000      -0.00027360       0.00017392       0.04947338
Pd       3.05359271       8.10876919       1.50000000  F       0.00000000       0.00000000       0.00000000      -0.00002991       0.00002554      -0.90353282
Pd       3.05455327       2.70234681       7.65197641  T       0.00000000       0.00000000       0.00000000      -0.00170017      -0.00215326       0.00434275
Pd       4.59125336       0.02130946      12.04549505  T       0.00000000       0.00000000       0.00000000      -0.00275765      -0.02081918      -0.00573919
Pd       3.05419304       2.70155577      10.77293123  T       0.00000000       0.00000000       0.00000000      -0.00985671      -0.00017419       0.02228286
Pd       3.05359569       8.10876742       4.56559865  F       0.00000000       0.00000000       0.00000000      -0.00054688       0.00013184       0.13721618
Pd       6.10718542       2.70292306       1.50000000  F       0.00000000       0.00000000       0.00000000       0.00007966       0.00003261      -0.90410975
Pd       7.63398177       0.00000000       3.02679635  F       0.00000000       0.00000000       0.00000000      -0.00010016      -0.00022136       0.04809550
Pd       1.52952540       5.41643445      12.02586375  T       0.00000000       0.00000000       0.00000000      -0.00658501      -0.01752632      -0.01735248
Pd       6.10128343       8.10810405       7.65257807  T       0.00000000       0.00000000       0.00000000       0.01903093      -0.00395289       0.00536829
Pd       0.00000079       8.10876600       4.56559869  F       0.00000000       0.00000000       0.00000000       0.00051254       0.00070670       0.12936699
Pd       6.10718651       8.10875952       4.56558968  F       0.00000000       0.00000000       0.00000000       0.00016630      -0.00004065       0.12677930
Pd       1.52680247       5.40584247       6.11658534  F       0.00000000       0.00000000       0.00000000      -0.00005624       0.00276111      -0.03413412
Pd       7.63398177       5.40584612       3.02679635  F       0.00000000       0.00000000       0.00000000      -0.00010543       0.00010139       0.04825083
Pd       6.10718542       8.10876919       1.50000000  F       0.00000000       0.00000000       0.00000000       0.00013692       0.00001467      -0.90397839
Pd       0.00428670       8.10761955       7.65362263  T       0.00000000       0.00000000       0.00000000      -0.00409710       0.00361476       0.00020178
Pd       7.64971648      10.79891986      11.99371005  T       0.00000000       0.00000000       0.00000000       0.01228132       0.02360514      -0.01126568
Pd       6.12234056       2.70284280      10.75084588  T       0.00000000       0.00000000       0.00000000       0.00825870      -0.00432951       0.02665406
Pd       1.53057351       5.40699284       9.14436541  T       0.00000000       0.00000000       0.00000000       0.00168832      -0.00182012      -0.00693756
Pd       7.63470085      -0.00600382       9.13417869  T       0.00000000       0.00000000       0.00000000       0.00104048       0.00098090      -0.00432654
Pd       6.10770239       2.70172561       7.64704606  T       0.00000000       0.00000000       0.00000000      -0.00313115       0.00889568       0.00025217
Pd      12.21142914       8.10762061      10.77791625  T       0.00000000       0.00000000       0.00000000       0.01829357      -0.00057684       0.00333462
Pd       7.63399583      10.81167532       6.11657540  F       0.00000000       0.00000000       0.00000000      -0.00042253      -0.00650400      -0.04097525
Pd       6.10718592       2.70292523       4.56558724  F       0.00000000       0.00000000       0.00000000       0.00025437       0.00092413       0.11405442
Pd       1.52679635       5.40584612       3.02679635  F       0.00000000       0.00000000       0.00000000      -0.00000038       0.00009662       0.04900768
Pd       0.00000000       2.70292306       1.50000000  F       0.00000000       0.00000000       0.00000000      -0.00004150      -0.00000384      -0.90399058
C        7.65074500       1.06582039      15.06826950  T       0.00000000       0.00000000       0.00000000       0.00696416       0.04056368      -0.00324288
O        7.26867236       0.06235391      15.47481795  T       0.00000000       0.00000000       0.00000000      -0.02404119      -0.02264421      -0.00015450
O        4.60156541       2.76034456      13.89743766  T       0.00000000       0.00000000       0.00000000      -0.01149880      -0.02374045      -0.00914156
C        4.13797651       2.66027807      15.18171512  T       0.00000000       0.00000000       0.00000000      -0.01370988       0.00532133      -0.00416729
H        4.98421088       2.67154455      15.91802723  T       0.00000000       0.00000000       0.00000000       0.00564394      -0.00192414       0.01741440
H        3.46204639       3.50842342      15.46036519  T       0.00000000       0.00000000       0.00000000      -0.03497115       0.02186043      -0.00933652
H        3.56657676       1.71228484      15.35408266  T       0.00000000       0.00000000       0.00000000      -0.02621284      -0.01098671       0.00647214
