135
Lattice="12.21437083684855 0.0 7e-16 1.7e-15 10.811692246786171 7e-16 0.0 0.0 30.687574482242482" Properties=species:S:1:pos:R:3:move_mask:L:1:momenta:R:3:forces:R:3 idx=8212 E_MACE=-716.0926230741891 d_min=1.468414560378559 d_reactive=1.1794019341738369 rank=1 dE_rel_meV=37.23231388551085 converged=T energy=-716.0926230741891 stress="-0.00021466120576663084 2.552749313096264e-05 0.00032072711451652206 2.552749313096264e-05 -0.001404153208247461 -1.7040996438807184e-05 0.00032072711451652206 -1.7040996438807184e-05 -0.003986449140479719" pbc="T T T"
O        3.11965643       6.71173302      12.18573490  T       0.00000000       0.00000000       0.00000000       0.01650558       0.00368047      -0.01203126
O        6.18357469       1.31436756      12.17110180  T       0.00000000       0.00000000       0.00000000      -0.00694006      -0.02653673      -0.01431899
O        6.17615341       4.11033714      12.15065271  T       0.00000000       0.00000000       0.00000000       0.00113492      -0.01420935       0.02165656
O        6.16696146       1.35044081       9.16485532  T       0.00000000       0.00000000       0.00000000      -0.00759620       0.02073835       0.00236114
O        6.15982506       4.04999805       9.16035314  T       0.00000000       0.00000000       0.00000000      -0.01322170       0.02571441       0.01801089
O        6.10718343       1.35539432       6.10801899  F       0.00000000       0.00000000       0.00000000       0.03252880      -0.00032352       0.05857974
O        6.10718534       4.05045008       6.10801162  F       0.00000000       0.00000000       0.00000000       0.02688279      -0.01151921       0.06867124
O        6.10718542       1.35146153       3.02679635  F       0.00000000       0.00000000       0.00000000       0.00117945      -0.47104666       0.31497658
O        6.10718542       4.05438459       3.02679635  F       0.00000000       0.00000000       0.00000000       0.00109955       0.47129805       0.31451507
O        9.24997435       9.52334569      12.16406091  T       0.00000000       0.00000000       0.00000000      -0.02124584      -0.02867868      -0.01260202
O        3.12076483       9.52328177      12.15441095  T       0.00000000       0.00000000       0.00000000      -0.00040820      -0.01853762       0.01663980
O        3.09965512       6.75806839       9.16861930  T       0.00000000       0.00000000       0.00000000       0.01366881       0.01382173       0.00609688
O        3.11139292       9.45379018       9.16604833  T       0.00000000       0.00000000       0.00000000      -0.00438768      -0.00246418      -0.01186524
O        3.05359341       6.76124998       6.10801980  F       0.00000000       0.00000000       0.00000000       0.02489951       0.00060290       0.06536862
O        3.05359360       9.45629444       6.10802097  F       0.00000000       0.00000000       0.00000000       0.03253984      -0.02619444       0.08492510
O        3.05359271       6.75730765       3.02679635  F       0.00000000       0.00000000       0.00000000       0.00115125      -0.47128854       0.31408044
O        3.05359271       9.46023072       3.02679635  F       0.00000000       0.00000000       0.00000000       0.00105817       0.47154415       0.31434721
O        3.14879693       1.32629464      12.15430755  T       0.00000000       0.00000000       0.00000000      -0.00250316      -0.00126792       0.04029522
O        6.10718542       9.46023072       3.02679635  F       0.00000000       0.00000000       0.00000000       0.00111714       0.47144346       0.31423806
O        6.10718542       6.75730765       3.02679635  F       0.00000000       0.00000000       0.00000000       0.00097415      -0.47141946       0.31422578
O        6.10718028       9.45628983       6.10801454  F       0.00000000       0.00000000       0.00000000       0.02886237      -0.01351842       0.07289497
O        6.10718760       6.76124043       6.10802244  F       0.00000000       0.00000000       0.00000000       0.01764783       0.00809223       0.06597020
O        9.20805975       6.76655079       9.17092743  T       0.00000000       0.00000000       0.00000000      -0.00169284      -0.00213714       0.01532591
O        9.22182576       9.46033764       9.16233801  T       0.00000000       0.00000000       0.00000000      -0.00093964      -0.00332953       0.00433646
O        9.16078073       6.76123572       6.10801818  F       0.00000000       0.00000000       0.00000000       0.02391587       0.00183926       0.06669351
O        9.16078059       9.45627785       6.10801483  F       0.00000000       0.00000000       0.00000000       0.03809671      -0.01895317       0.06887075
O        9.16077813       6.75730765       3.02679635  F       0.00000000       0.00000000       0.00000000       0.00085893      -0.47128538       0.31430269
O        9.16077813       9.46023072       3.02679635  F       0.00000000       0.00000000       0.00000000       0.00107661       0.47148468       0.31484958
O        9.21845228       1.33421086      12.18939167  T       0.00000000       0.00000000       0.00000000       0.00037681      -0.00602311      -0.01514396
O        9.22209698       4.10126652      12.16476254  T       0.00000000       0.00000000       0.00000000       0.02779131       0.01724485      -0.00346003
O        3.12058939       4.09157665      12.13890275  T       0.00000000       0.00000000       0.00000000       0.01009478       0.00154265       0.02170348
O        9.21405661       1.35685760       9.16813206  T       0.00000000       0.00000000       0.00000000       0.00773245      -0.00304811       0.00010120
O        9.16077827       1.35539012       6.10801450  F       0.00000000       0.00000000       0.00000000       0.02263749       0.01173223       0.07527077
O        9.16078421       4.05045012       6.10800209  F       0.00000000       0.00000000       0.00000000       0.02487726      -0.01003009       0.07123502
O        9.16077813       1.35146153       3.02679635  F       0.00000000       0.00000000       0.00000000       0.00101388      -0.47108942       0.31418752
O        9.16077813       4.05438459       3.02679635  F       0.00000000       0.00000000       0.00000000       0.00100728       0.47125513       0.31395065
O        6.16931292       6.72014118      12.17343336  T       0.00000000       0.00000000       0.00000000       0.00126006      -0.01123591       0.03267030
O        6.18443074       9.50550275      12.16550945  T       0.00000000       0.00000000       0.00000000      -0.00531313       0.03517471       0.01559098
O        6.15521885       6.75731969       9.16759053  T       0.00000000       0.00000000       0.00000000       0.00300533       0.02010622      -0.00005132
O        6.16814340       9.45088888       9.16656228  T       0.00000000       0.00000000       0.00000000      -0.00857424       0.02720112       0.00380966
O        9.21491772       4.05609004       9.16356559  T       0.00000000       0.00000000       0.00000000      -0.02300749      -0.00268490       0.00356804
O        3.11694472       1.34913334       9.15227804  T       0.00000000       0.00000000       0.00000000      -0.01048472       0.00813730       0.00735201
O        9.22237555       6.73025346      12.18859511  T       0.00000000       0.00000000       0.00000000       0.00228967       0.00312894      -0.00495524
O       12.28794515       9.57560174      12.11670199  T       0.00000000       0.00000000       0.00000000       0.00980491      -0.00659435       0.02542208
O        0.00000000       6.75730765       3.02679635  F       0.00000000       0.00000000       0.00000000       0.00084796      -0.47112259       0.31522349
O        3.09598884       4.05829120       9.14998422  T       0.00000000       0.00000000       0.00000000       0.00388137      -0.00706974       0.01530077
O        0.07928314       1.34735195      12.17820960  T       0.00000000       0.00000000       0.00000000      -0.00755480       0.04699086      -0.00313875
O        0.00000951       9.45630243       6.10801529  F       0.00000000       0.00000000       0.00000000       0.03008081      -0.01903234       0.05449676
O       12.27458760       4.12184549      12.16975117  T       0.00000000       0.00000000       0.00000000      -0.00614577      -0.02719354      -0.00085473
O        0.00000182       6.76124509       6.10800952  F       0.00000000       0.00000000       0.00000000       0.01917285      -0.01665139       0.04888676
O        0.05695426       9.45653219       9.15583303  T       0.00000000       0.00000000       0.00000000      -0.02268617       0.01869906      -0.01202492
O        0.06097081       1.36095821       9.16999273  T       0.00000000       0.00000000       0.00000000      -0.02556735      -0.01066610      -0.00512895
O        0.04506365       6.77219658       9.17975201  T       0.00000000       0.00000000       0.00000000       0.00283425       0.01394332       0.01729771
O       12.25524179       4.06215067       9.16157576  T       0.00000000       0.00000000       0.00000000       0.02142817      -0.01487181      -0.00762007
O       12.29083748       6.79526414      12.30534092  T       0.00000000       0.00000000       0.00000000       0.00869723       0.01280256      -0.00598748
O        0.00000448       1.35539672       6.10801283  F       0.00000000       0.00000000       0.00000000       0.03509981       0.01176402       0.08314360
O        0.00000331       4.05045002       6.10801189  F       0.00000000       0.00000000       0.00000000       0.01663631      -0.01216556       0.06839958
O        3.05359271       4.05438459       3.02679635  F       0.00000000       0.00000000       0.00000000       0.00104481       0.47104862       0.31631000
O        0.00000000       9.46023072       3.02679635  F       0.00000000       0.00000000       0.00000000       0.00097933       0.47178910       0.31480389
O        3.05359105       4.05044320       6.10802763  F       0.00000000       0.00000000       0.00000000       0.01823568       0.02155814       0.03520364
O        3.05359271       1.35146153       3.02679635  F       0.00000000       0.00000000       0.00000000       0.00113758      -0.47076845       0.31661887
O        3.05359652       1.35540103       6.10801944  F       0.00000000       0.00000000       0.00000000       0.03726318      -0.01003436       0.04238593
O        0.00000000       4.05438459       3.02679635  F       0.00000000       0.00000000       0.00000000       0.00068736       0.47088148       0.31400530
O        0.00000000       1.35146153       3.02679635  F       0.00000000       0.00000000       0.00000000       0.00091365      -0.47111237       0.31444036
Pd       7.69793966       5.41931455      12.02237919  T       0.00000000       0.00000000       0.00000000      -0.01885558      -0.00102556      -0.00376251
Pd      10.72396360       5.40053852      12.05811041  T       0.00000000       0.00000000       0.00000000       0.01678084      -0.02786243      -0.00329965
Pd       0.00000000       8.10876919       1.50000000  F       0.00000000       0.00000000       0.00000000      -0.00000494      -0.00010064      -0.90444556
Pd       9.22938680       8.11929592      10.76281937  T       0.00000000       0.00000000       0.00000000      -0.01634202      -0.01657274       0.02760583
Pd       1.52679635       0.00000000       3.02679635  F       0.00000000       0.00000000       0.00000000      -0.00206637      -0.00010960       0.04816813
Pd       9.16077813       2.70292306       1.50000000  F       0.00000000       0.00000000       0.00000000      -0.00003958       0.00004024      -0.90410580
Pd      10.68757448       0.00000000       3.02679635  F       0.00000000       0.00000000       0.00000000      -0.00164115      -0.00026371       0.04849797
Pd      10.73292769       5.41756859       9.13781495  T       0.00000000       0.00000000       0.00000000       0.00528832      -0.01205116      -0.00494361
Pd       1.61367939       0.04850256      12.00611902  T       0.00000000       0.00000000       0.00000000      -0.00586843      -0.00417917      -0.00240932
Pd       9.16077900       2.70292450       4.56559698  F       0.00000000       0.00000000       0.00000000      -0.00403692      -0.00051297       0.12119072
Pd      10.68756280      10.81168006       6.11657659  F       0.00000000       0.00000000       0.00000000      -0.01242520      -0.00001324      -0.04457698
Pd       9.16077776       8.10875607       4.56559406  F       0.00000000       0.00000000       0.00000000      -0.00455820       0.00123637       0.11441811
Pd       1.52678677       0.00000067       6.11658292  F       0.00000000       0.00000000       0.00000000      -0.01381755      -0.00490233      -0.04467247
Pd       9.19071407       8.10759273       7.64846734  T       0.00000000       0.00000000       0.00000000      -0.01490184       0.03795025      -0.00507952
Pd       9.18613976       2.70364107       7.64992055  T       0.00000000       0.00000000       0.00000000       0.01302697       0.01397895      -0.01298137
Pd      10.74638375       0.00809435       9.13521852  T       0.00000000       0.00000000       0.00000000      -0.01682529      -0.02507711       0.01601968
Pd       0.00000135       2.70292705       4.56560641  F       0.00000000       0.00000000       0.00000000      -0.00388903      -0.00131307       0.12312585
Pd       1.58874411      10.81348598       9.13329839  T       0.00000000       0.00000000       0.00000000      -0.02556359      -0.00920032       0.00785126
Pd       9.22367228       2.70812258      10.76105504  T       0.00000000       0.00000000       0.00000000      -0.02208214       0.01495472      -0.00958569
Pd       6.17160799       8.10817009      10.76388963  T       0.00000000       0.00000000       0.00000000      -0.00475506       0.00316244      -0.00005324
Pd      10.75381602      10.86565078      12.02379750  T       0.00000000       0.00000000       0.00000000      -0.01823806      -0.00274463      -0.00584178
Pd       0.02616463       2.70421962       7.65062130  T       0.00000000       0.00000000       0.00000000      -0.01008557       0.02638102      -0.01844151
Pd      10.68757280       5.40584816       6.11657764  F       0.00000000       0.00000000       0.00000000      -0.01224986      -0.00184897      -0.05003176
Pd       9.16077813       8.10876919       1.50000000  F       0.00000000       0.00000000       0.00000000      -0.00004539      -0.00011825      -0.90430794
Pd      10.68757448       5.40584612       3.02679635  F       0.00000000       0.00000000       0.00000000      -0.00186655      -0.00017223       0.04939965
Pd      12.27384259       2.72448861      10.76152011  T       0.00000000       0.00000000       0.00000000      -0.00438971       0.02399835       0.02243472
Pd       4.64427609      -0.00620603       9.13396722  T       0.00000000       0.00000000       0.00000000      -0.03564352      -0.00013599       0.00338144
Pd       7.63397856       5.40585179       6.11657833  F       0.00000000       0.00000000       0.00000000      -0.01183531      -0.00157190      -0.03984201
Pd       7.68461877       5.40754488       9.13776711  T       0.00000000       0.00000000       0.00000000      -0.00934977      -0.00445892       0.00454255
Pd       4.64945115       5.40972476      12.01116503  T       0.00000000       0.00000000       0.00000000      -0.00841070       0.00482954      -0.00072954
Pd       3.11519682       8.10739039      10.76461876  T       0.00000000       0.00000000       0.00000000      -0.00175076       0.02556918       0.01100540
Pd       4.58038906       0.00000000       3.02679635  F       0.00000000       0.00000000       0.00000000      -0.00187622      -0.00027194       0.04851605
Pd       4.62898897       5.40521903       9.13520877  T       0.00000000       0.00000000       0.00000000       0.00096239      -0.00492154      -0.01044412
Pd       3.08108311       8.10543593       7.65049927  T       0.00000000       0.00000000       0.00000000      -0.01387730       0.03004792      -0.01817161
Pd       3.05359494       2.70292824       4.56560681  F       0.00000000       0.00000000       0.00000000      -0.00396077      -0.00191842       0.10146771
Pd       3.05359271       2.70292306       1.50000000  F       0.00000000       0.00000000       0.00000000      -0.00003105      -0.00000394      -0.90457006
Pd       4.58039501       5.40584640       6.11658908  F       0.00000000       0.00000000       0.00000000      -0.00731191       0.00213832      -0.04221102
Pd       4.58040505      10.81168838       6.11658203  F       0.00000000       0.00000000       0.00000000      -0.01145130      -0.00603917      -0.04027537
Pd       4.58038906       5.40584612       3.02679635  F       0.00000000       0.00000000       0.00000000      -0.00154187      -0.00001114       0.04828302
Pd       3.05359271       8.10876919       1.50000000  F       0.00000000       0.00000000       0.00000000      -0.00008291      -0.00005687      -0.90440381
Pd       3.08134867       2.70446232       7.64215864  T       0.00000000       0.00000000       0.00000000      -0.01215240      -0.01966615      -0.00189526
Pd       4.66193076       0.00705803      12.01165924  T       0.00000000       0.00000000       0.00000000      -0.00560056      -0.01449496       0.00769569
Pd       3.12002557       2.70319773      10.73458271  T       0.00000000       0.00000000       0.00000000      -0.00156654       0.01817992       0.02536936
Pd       3.05359569       8.10876742       4.56559865  F       0.00000000       0.00000000       0.00000000      -0.00331733       0.00246666       0.11947855
Pd       6.10718542       2.70292306       1.50000000  F       0.00000000       0.00000000       0.00000000      -0.00012237      -0.00000950      -0.90437623
Pd       7.63398177       0.00000000       3.02679635  F       0.00000000       0.00000000       0.00000000      -0.00165000      -0.00015405       0.04895363
Pd       1.61823235       5.38647325      12.03219433  T       0.00000000       0.00000000       0.00000000      -0.01457869      -0.01827012      -0.00351684
Pd       6.13240657       8.10762779       7.64912049  T       0.00000000       0.00000000       0.00000000       0.01391994      -0.02305531       0.00640572
Pd       0.00000079       8.10876600       4.56559869  F       0.00000000       0.00000000       0.00000000      -0.00382380       0.00415290       0.10829093
Pd       6.10718651       8.10875952       4.56558968  F       0.00000000       0.00000000       0.00000000      -0.00379591       0.00077068       0.11678512
Pd       1.52680247       5.40584247       6.11658534  F       0.00000000       0.00000000       0.00000000      -0.01452576       0.00158313      -0.04987340
Pd       7.63398177       5.40584612       3.02679635  F       0.00000000       0.00000000       0.00000000      -0.00146662      -0.00012509       0.04868673
Pd       6.10718542       8.10876919       1.50000000  F       0.00000000       0.00000000       0.00000000      -0.00002615      -0.00001665      -0.90433611
Pd       0.02519513       8.10416903       7.64710795  T       0.00000000       0.00000000       0.00000000      -0.00128519       0.00070022      -0.00047595
Pd       7.70951274      10.82109334      12.03140383  T       0.00000000       0.00000000       0.00000000       0.00723459      -0.01346484      -0.00842993
Pd       6.17582540       2.70509359      10.75809262  T       0.00000000       0.00000000       0.00000000      -0.01064614      -0.02114871      -0.00896636
Pd       1.57027600       5.41348928       9.13132512  T       0.00000000       0.00000000       0.00000000       0.00012394       0.00109846       0.00648022
Pd       7.69315371      -0.00249626       9.13589412  T       0.00000000       0.00000000       0.00000000      -0.00393057       0.00187270       0.01699331
Pd       6.13638531       2.70101413       7.64756351  T       0.00000000       0.00000000       0.00000000      -0.00288260      -0.00248404       0.00553429
Pd      12.27514773       8.17084590      10.75118456  T       0.00000000       0.00000000       0.00000000       0.00813633       0.01285970       0.02484042
Pd       7.63399583      10.81167532       6.11657540  F       0.00000000       0.00000000       0.00000000      -0.01170703      -0.00073951      -0.03901510
Pd       6.10718592       2.70292523       4.56558724  F       0.00000000       0.00000000       0.00000000      -0.00379831       0.00025685       0.11458928
Pd       1.52679635       5.40584612       3.02679635  F       0.00000000       0.00000000       0.00000000      -0.00142833      -0.00034598       0.04860517
Pd       0.00000000       2.70292306       1.50000000  F       0.00000000       0.00000000       0.00000000       0.00003321       0.00011625      -0.90401157
C        8.97465993       8.42133592      15.41367224  T       0.00000000       0.00000000       0.00000000      -0.01806728       0.02577998      -0.01479714
O        8.89062199       9.59554093      15.34618626  T       0.00000000       0.00000000       0.00000000      -0.01280649       0.00677311      -0.01037277
O        9.06682818       7.24893524      15.50295026  T       0.00000000       0.00000000       0.00000000      -0.00078898      -0.02056953      -0.02294946
C       12.35794405       7.32221060      13.67430603  T       0.00000000       0.00000000       0.00000000       0.00601645      -0.00776509      -0.00648869
H       12.33346630       6.46760154      14.36851822  T       0.00000000       0.00000000       0.00000000      -0.03328474       0.01491864       0.00640695
H       13.29895150       7.88112978      13.78054884  T       0.00000000       0.00000000       0.00000000       0.00935072       0.01615944       0.01537429
H       11.49873924       7.98680884      13.83059851  T       0.00000000       0.00000000       0.00000000      -0.00371137      -0.02336443       0.01786551
