135
Lattice="12.21437083684855 0.0 7e-16 1.7e-15 10.811692246786171 7e-16 0.0 0.0 30.687574482242482" Properties=species:S:1:pos:R:3:move_mask:L:1:momenta:R:3:forces:R:3 idx=3165 E_MACE=-715.3731932535137 d_min=1.41422238508599 d_reactive=1.3347085821220694 rank=5 dE_rel_meV=756.6621345608837 converged=T energy=-715.3731932535137 stress="-0.0006035549753140752 -6.64160960564989e-05 -0.00013539247895771864 -6.64160960564989e-05 -0.001456298292927512 0.00015134855744151462 -0.00013539247895771864 0.00015134855744151462 -0.003925090524692616" pbc="T T T"
O        2.98309376       6.70629220      12.14187844  T       0.00000000       0.00000000       0.00000000      -0.01060377      -0.01846519       0.02527253
O        6.09647400       1.36392512      12.19299123  T       0.00000000       0.00000000       0.00000000      -0.01137183      -0.00077236      -0.00110165
O        6.07779684       4.14978396      12.18102889  T       0.00000000       0.00000000       0.00000000      -0.00785856       0.00525309       0.02683267
O        6.10266149       1.37207230       9.18109096  T       0.00000000       0.00000000       0.00000000      -0.00226492       0.00319147       0.01900467
O        6.09272864       4.06899159       9.16771647  T       0.00000000       0.00000000       0.00000000       0.01113285       0.00932822      -0.00187475
O        6.10718343       1.35539432       6.10801899  F       0.00000000       0.00000000       0.00000000       0.00323688       0.03431865       0.11047207
O        6.10718534       4.05045008       6.10801162  F       0.00000000       0.00000000       0.00000000      -0.00542772      -0.00976855       0.06418824
O        6.10718542       1.35146153       3.02679635  F       0.00000000       0.00000000       0.00000000       0.00005688      -0.47124122       0.31315136
O        6.10718542       4.05438459       3.02679635  F       0.00000000       0.00000000       0.00000000       0.00004172       0.47108378       0.31293121
O        9.14831550       9.54217006      12.16279942  T       0.00000000       0.00000000       0.00000000       0.00664418       0.00753993       0.00224756
O        3.04535320       9.53442275      12.15386499  T       0.00000000       0.00000000       0.00000000      -0.01686877      -0.01274891       0.00042861
O        3.03865459       6.77164544       9.16688553  T       0.00000000       0.00000000       0.00000000       0.00942983      -0.01137225       0.01340104
O        3.05471294       9.46515158       9.15901423  T       0.00000000       0.00000000       0.00000000      -0.00458543       0.00072811       0.02358419
O        3.05359341       6.76124998       6.10801980  F       0.00000000       0.00000000       0.00000000      -0.00398856       0.00530347       0.06545870
O        3.05359360       9.45629444       6.10802097  F       0.00000000       0.00000000       0.00000000       0.01222233       0.00452293       0.04434268
O        3.05359271       6.75730765       3.02679635  F       0.00000000       0.00000000       0.00000000      -0.00006713      -0.47160277       0.31439024
O        3.05359271       9.46023072       3.02679635  F       0.00000000       0.00000000       0.00000000       0.00021316       0.47175261       0.31529125
O        3.02979808       1.33284907      12.15749728  T       0.00000000       0.00000000       0.00000000       0.01346898       0.02100625       0.00535854
O        6.10718542       9.46023072       3.02679635  F       0.00000000       0.00000000       0.00000000       0.00005216       0.47233030       0.31256439
O        6.10718542       6.75730765       3.02679635  F       0.00000000       0.00000000       0.00000000       0.00001088      -0.47124483       0.31275262
O        6.10718028       9.45628983       6.10801454  F       0.00000000       0.00000000       0.00000000       0.00380147      -0.04020290       0.07303095
O        6.10718760       6.76124043       6.10802244  F       0.00000000       0.00000000       0.00000000      -0.00891983       0.02417720       0.10208092
O        9.14458955       6.77516013       9.17990712  T       0.00000000       0.00000000       0.00000000       0.00133667      -0.00126190       0.00055203
O        9.15410474       9.46657258       9.17066919  T       0.00000000       0.00000000       0.00000000      -0.00746331       0.00507077      -0.00272776
O        9.16078073       6.76123572       6.10801818  F       0.00000000       0.00000000       0.00000000      -0.01504355       0.03125616       0.09990276
O        9.16078059       9.45627785       6.10801483  F       0.00000000       0.00000000       0.00000000      -0.00855334      -0.00815937       0.06940374
O        9.16077813       6.75730765       3.02679635  F       0.00000000       0.00000000       0.00000000      -0.00046280      -0.47158831       0.31262503
O        9.16077813       9.46023072       3.02679635  F       0.00000000       0.00000000       0.00000000      -0.00047071       0.47206628       0.31347194
O        9.17064544       1.34474354      12.16924694  T       0.00000000       0.00000000       0.00000000       0.01429430       0.01500841       0.01310403
O        9.13196416       4.10761187      12.15106275  T       0.00000000       0.00000000       0.00000000       0.00969410       0.00214312       0.00917246
O        3.02104651       4.09626313      12.12848412  T       0.00000000       0.00000000       0.00000000       0.00479539      -0.00058035       0.04242547
O        9.15637863       1.36485588       9.16685464  T       0.00000000       0.00000000       0.00000000       0.00063680      -0.00839163      -0.00266721
O        9.16077827       1.35539012       6.10801450  F       0.00000000       0.00000000       0.00000000      -0.00387240       0.01575813       0.08526784
O        9.16078421       4.05045012       6.10800209  F       0.00000000       0.00000000       0.00000000      -0.02226806       0.01135703       0.05015112
O        9.16077813       1.35146153       3.02679635  F       0.00000000       0.00000000       0.00000000      -0.00037003      -0.47102974       0.31441116
O        9.16077813       4.05438459       3.02679635  F       0.00000000       0.00000000       0.00000000      -0.00059545       0.47121211       0.31488324
O        6.07284407       6.83847952      12.41741229  T       0.00000000       0.00000000       0.00000000       0.02232462      -0.00030861      -0.01912303
O        6.10982882       9.58303640      12.15957501  T       0.00000000       0.00000000       0.00000000       0.00353977      -0.03213422      -0.00754261
O        6.09170423       6.78988902       9.20656668  T       0.00000000       0.00000000       0.00000000      -0.00373984       0.00408026      -0.02053979
O        6.10637502       9.46443209       9.16417346  T       0.00000000       0.00000000       0.00000000      -0.00729308      -0.01521113       0.01509975
O        9.13740488       4.06959652       9.15752087  T       0.00000000       0.00000000       0.00000000       0.00326005      -0.00630854      -0.02048771
O        3.05278819       1.35483658       9.15455198  T       0.00000000       0.00000000       0.00000000      -0.00970147       0.00543728       0.00617219
O        9.15516966       6.72488448      12.17967932  T       0.00000000       0.00000000       0.00000000       0.00280069       0.01449711       0.00436306
O       12.20215367       9.52261351      12.16087875  T       0.00000000       0.00000000       0.00000000       0.01271723      -0.01891182       0.01354470
O        0.00000000       6.75730765       3.02679635  F       0.00000000       0.00000000       0.00000000      -0.00032136      -0.47143751       0.31400044
O        3.05046187       4.06497034       9.14777423  T       0.00000000       0.00000000       0.00000000      -0.01688266      -0.00532952      -0.00915603
O       -0.00550305       1.32287402      12.16127653  T       0.00000000       0.00000000       0.00000000      -0.01926609      -0.01143956       0.00671276
O        0.00000951       9.45630243       6.10801529  F       0.00000000       0.00000000       0.00000000      -0.00351926      -0.00706724       0.06432281
O       12.17810175       4.09951896      12.15792127  T       0.00000000       0.00000000       0.00000000      -0.00615016      -0.01311614      -0.00250011
O        0.00000182       6.76124509       6.10800952  F       0.00000000       0.00000000       0.00000000      -0.00882682       0.02265582       0.08694417
O       -0.00585284       9.46429822       9.16634732  T       0.00000000       0.00000000       0.00000000      -0.00345654      -0.01197876      -0.00997980
O       -0.00092260       1.36044785       9.16127683  T       0.00000000       0.00000000       0.00000000      -0.01700842      -0.01643039      -0.00456134
O       -0.01302384       6.76795019       9.17111236  T       0.00000000       0.00000000       0.00000000      -0.00066884      -0.00118115      -0.01338171
O       12.19997772       4.06311546       9.15614464  T       0.00000000       0.00000000       0.00000000      -0.01290139      -0.01711790       0.00223655
O       12.18573884       6.72078810      12.16693852  T       0.00000000       0.00000000       0.00000000       0.01116533      -0.01259581       0.00457450
O        0.00000448       1.35539672       6.10801283  F       0.00000000       0.00000000       0.00000000       0.00080891       0.01515722       0.07319644
O        0.00000331       4.05045002       6.10801189  F       0.00000000       0.00000000       0.00000000      -0.01074589       0.01187109       0.04444894
O        3.05359271       4.05438459       3.02679635  F       0.00000000       0.00000000       0.00000000       0.00008709       0.47091351       0.31675119
O        0.00000000       9.46023072       3.02679635  F       0.00000000       0.00000000       0.00000000      -0.00026414       0.47150742       0.31434844
O        3.05359105       4.05044320       6.10802763  F       0.00000000       0.00000000       0.00000000       0.00092607       0.02426398       0.02817876
O        3.05359271       1.35146153       3.02679635  F       0.00000000       0.00000000       0.00000000       0.00008814      -0.47080844       0.31643249
O        3.05359652       1.35540103       6.10801944  F       0.00000000       0.00000000       0.00000000       0.00095286      -0.01635196       0.04253796
O        0.00000000       4.05438459       3.02679635  F       0.00000000       0.00000000       0.00000000      -0.00031885       0.47118819       0.31571947
O        0.00000000       1.35146153       3.02679635  F       0.00000000       0.00000000       0.00000000      -0.00019864      -0.47094631       0.31540006
Pd       7.63960880       5.41455720      12.08866437  T       0.00000000       0.00000000       0.00000000       0.02377818       0.01394474       0.00235278
Pd      10.66448727       5.41499615      12.00944922  T       0.00000000       0.00000000       0.00000000      -0.01372791      -0.01226137       0.00719234
Pd       0.00000000       8.10876919       1.50000000  F       0.00000000       0.00000000       0.00000000       0.00006191      -0.00007974      -0.90434531
Pd       9.14657697       8.12648749      10.77471044  T       0.00000000       0.00000000       0.00000000       0.00338230      -0.00162972      -0.01775770
Pd       1.52679635       0.00000000       3.02679635  F       0.00000000       0.00000000       0.00000000      -0.00002664      -0.00005265       0.04796954
Pd       9.16077813       2.70292306       1.50000000  F       0.00000000       0.00000000       0.00000000       0.00014975      -0.00009278      -0.90382408
Pd      10.68757448       0.00000000       3.02679635  F       0.00000000       0.00000000       0.00000000      -0.00003877      -0.00011482       0.04835345
Pd      10.67032009       5.41897532       9.13700559  T       0.00000000       0.00000000       0.00000000       0.00592435      -0.01795627       0.00123347
Pd       1.51436015       0.01902350      12.00944480  T       0.00000000       0.00000000       0.00000000      -0.00053036      -0.00294783       0.00555845
Pd       9.16077900       2.70292450       4.56559698  F       0.00000000       0.00000000       0.00000000       0.00074209      -0.00293231       0.11529571
Pd      10.68756280      10.81168006       6.11657659  F       0.00000000       0.00000000       0.00000000       0.00255873       0.00461775      -0.03416512
Pd       9.16077776       8.10875607       4.56559406  F       0.00000000       0.00000000       0.00000000       0.00128166      -0.00214440       0.12293008
Pd       1.52678677       0.00000067       6.11658292  F       0.00000000       0.00000000       0.00000000      -0.00439887       0.00212968      -0.03524874
Pd       9.15224840       8.11371386       7.65220897  T       0.00000000       0.00000000       0.00000000       0.00408340      -0.00588266       0.02301413
Pd       9.15132367       2.70851609       7.64761439  T       0.00000000       0.00000000       0.00000000       0.00519796       0.01298458      -0.00804145
Pd      10.68355766       0.00887597       9.13916955  T       0.00000000       0.00000000       0.00000000      -0.00332515      -0.01675989      -0.01738401
Pd       0.00000135       2.70292705       4.56560641  F       0.00000000       0.00000000       0.00000000       0.00076784      -0.00276759       0.11105467
Pd       1.52399950      10.81507931       9.13220715  T       0.00000000       0.00000000       0.00000000      -0.00407468       0.00071088      -0.00897084
Pd       9.14516765       2.72241185      10.74765593  T       0.00000000       0.00000000       0.00000000      -0.01191854      -0.02252982      -0.00368079
Pd       6.08438030       8.19347862      10.77724150  T       0.00000000       0.00000000       0.00000000      -0.00321266       0.01877663      -0.03460070
Pd      10.68248604      10.83518223      12.01495263  T       0.00000000       0.00000000       0.00000000      -0.00978951      -0.00222429      -0.00396013
Pd      -0.00371357       2.70761467       7.64642942  T       0.00000000       0.00000000       0.00000000      -0.00462005      -0.01757752      -0.00937314
Pd      10.68757280       5.40584816       6.11657764  F       0.00000000       0.00000000       0.00000000       0.00461132       0.01128513      -0.03611260
Pd       9.16077813       8.10876919       1.50000000  F       0.00000000       0.00000000       0.00000000       0.00012883      -0.00021601      -0.90384654
Pd      10.68757448       5.40584612       3.02679635  F       0.00000000       0.00000000       0.00000000       0.00024822       0.00033968       0.04799367
Pd      12.19868494       2.71099221      10.75110976  T       0.00000000       0.00000000       0.00000000      -0.00032234      -0.00173293       0.00730524
Pd       4.58012561       0.00949559       9.13964172  T       0.00000000       0.00000000       0.00000000       0.01078203       0.00022621      -0.01365720
Pd       7.63397856       5.40585179       6.11657833  F       0.00000000       0.00000000       0.00000000       0.00273249       0.01211650      -0.04883558
Pd       7.61527995       5.42792957       9.15007645  T       0.00000000       0.00000000       0.00000000       0.01597372       0.00386397       0.00768781
Pd       4.51039703       5.40938740      12.05231089  T       0.00000000       0.00000000       0.00000000       0.02023314      -0.01221914       0.03005630
Pd       3.03655234       8.12180074      10.75921771  T       0.00000000       0.00000000       0.00000000      -0.00621574       0.01133022      -0.01936347
Pd       4.58038906       0.00000000       3.02679635  F       0.00000000       0.00000000       0.00000000       0.00070398      -0.00019680       0.04833522
Pd       4.56920336       5.42657359       9.13957618  T       0.00000000       0.00000000       0.00000000       0.00884672       0.00786018       0.01304317
Pd       3.05396592       8.11160234       7.64627793  T       0.00000000       0.00000000       0.00000000      -0.01164096       0.01378893      -0.00126119
Pd       3.05359494       2.70292824       4.56560681  F       0.00000000       0.00000000       0.00000000       0.00039079      -0.00103932       0.09894343
Pd       3.05359271       2.70292306       1.50000000  F       0.00000000       0.00000000       0.00000000      -0.00010151      -0.00005427      -0.90449826
Pd       4.58039501       5.40584640       6.11658908  F       0.00000000       0.00000000       0.00000000       0.00766999       0.01009073      -0.05118257
Pd       4.58040505      10.81168838       6.11658203  F       0.00000000       0.00000000       0.00000000       0.00738970       0.00193589      -0.04641560
Pd       4.58038906       5.40584612       3.02679635  F       0.00000000       0.00000000       0.00000000       0.00027126       0.00007515       0.04882319
Pd       3.05359271       8.10876919       1.50000000  F       0.00000000       0.00000000       0.00000000      -0.00010772      -0.00015362      -0.90447985
Pd       3.05322785       2.70517640       7.64131436  T       0.00000000       0.00000000       0.00000000       0.00638303       0.01919492       0.01046379
Pd       4.56581243       0.05118131      12.03099545  T       0.00000000       0.00000000       0.00000000      -0.00202603       0.01952176      -0.00365417
Pd       3.04732558       2.70939106      10.73102916  T       0.00000000       0.00000000       0.00000000      -0.00853023      -0.01203078       0.02632777
Pd       3.05359569       8.10876742       4.56559865  F       0.00000000       0.00000000       0.00000000      -0.00008814      -0.00048324       0.10897780
Pd       6.10718542       2.70292306       1.50000000  F       0.00000000       0.00000000       0.00000000      -0.00008207      -0.00000123      -0.90361184
Pd       7.63398177       0.00000000       3.02679635  F       0.00000000       0.00000000       0.00000000      -0.00002821      -0.00014481       0.04903904
Pd       1.47942104       5.39986845      11.99451863  T       0.00000000       0.00000000       0.00000000       0.00026893       0.02194655       0.00252656
Pd       6.10345151       8.10846812       7.65401346  T       0.00000000       0.00000000       0.00000000       0.00601007      -0.02088876       0.01042389
Pd       0.00000079       8.10876600       4.56559869  F       0.00000000       0.00000000       0.00000000       0.00049747      -0.00101009       0.11894226
Pd       6.10718651       8.10875952       4.56558968  F       0.00000000       0.00000000       0.00000000       0.00112820       0.00097447       0.12358216
Pd       1.52680247       5.40584247       6.11658534  F       0.00000000       0.00000000       0.00000000      -0.00431668       0.00943974      -0.03760168
Pd       7.63398177       5.40584612       3.02679635  F       0.00000000       0.00000000       0.00000000       0.00074853       0.00009571       0.05012202
Pd       6.10718542       8.10876919       1.50000000  F       0.00000000       0.00000000       0.00000000      -0.00008063      -0.00023433      -0.90377383
Pd      -0.00519489       8.11207068       7.65034874  T       0.00000000       0.00000000       0.00000000      -0.00210866      -0.00251606       0.01056721
Pd       7.63867064      10.87562876      12.03760210  T       0.00000000       0.00000000       0.00000000      -0.01265606      -0.02317756      -0.01559308
Pd       6.08944476       2.74572162      10.77561427  T       0.00000000       0.00000000       0.00000000       0.00888721      -0.03682384       0.00231784
Pd       1.51468200       5.41411975       9.13101366  T       0.00000000       0.00000000       0.00000000      -0.00648206       0.00326310      -0.00389868
Pd       7.63110264       0.01431020       9.14996301  T       0.00000000       0.00000000       0.00000000      -0.00258017      -0.00636096      -0.01850598
Pd       6.10363289       2.70882843       7.65308532  T       0.00000000       0.00000000       0.00000000      -0.00079094       0.00645544       0.01994529
Pd      12.19745982       8.11930473      10.76544445  T       0.00000000       0.00000000       0.00000000       0.00360442       0.00221870      -0.01486943
Pd       7.63399583      10.81167532       6.11657540  F       0.00000000       0.00000000       0.00000000       0.00060258       0.00484049      -0.04384183
Pd       6.10718592       2.70292523       4.56558724  F       0.00000000       0.00000000       0.00000000       0.00076551      -0.00324589       0.12949264
Pd       1.52679635       5.40584612       3.02679635  F       0.00000000       0.00000000       0.00000000       0.00013820       0.00018414       0.04749977
Pd       0.00000000       2.70292306       1.50000000  F       0.00000000       0.00000000       0.00000000       0.00004905      -0.00015111      -0.90436481
C        6.04018171       7.39522665      13.71702406  T       0.00000000       0.00000000       0.00000000       0.01193568      -0.02292430       0.01979740
O        7.01553774       7.42257246      14.43697498  T       0.00000000       0.00000000       0.00000000       0.00349622      -0.00303575      -0.00026626
O        4.78477080       7.77079872      13.97066958  T       0.00000000       0.00000000       0.00000000       0.00765039       0.04007608      -0.02056967
C        4.52536187       8.46531884      15.22081366  T       0.00000000       0.00000000       0.00000000      -0.02018817       0.00852635      -0.02473680
H        4.88370186       7.86135305      16.06696957  T       0.00000000       0.00000000       0.00000000      -0.00508703       0.01406952       0.02902868
H        5.02486490       9.44610158      15.20771042  T       0.00000000       0.00000000       0.00000000       0.02741796      -0.00721154       0.00073161
H        3.43484623       8.58654868      15.23726080  T       0.00000000       0.00000000       0.00000000       0.03418300      -0.01195238       0.00786815
