135
Lattice="12.21437083684855 0.0 7e-16 1.7e-15 10.811692246786171 7e-16 0.0 0.0 30.687574482242482" Properties=species:S:1:pos:R:3:move_mask:L:1:momenta:R:3:forces:R:3 idx=4258 E_MACE=-715.3735130360053 d_min=1.4161286668149704 d_reactive=1.3343045133349982 rank=4 dE_rel_meV=756.3423520692822 converged=T energy=-715.3735130360053 stress="-0.0004760156859221574 8.769412279994571e-05 -0.0001290154315798984 8.769412279994571e-05 -0.001315086624428561 -0.0001284189246577655 -0.0001290154315798984 -0.0001284189246577655 -0.003756521982016324" pbc="T T T"
O        3.06660143       6.64365849      12.15559920  T       0.00000000       0.00000000       0.00000000      -0.01940856      -0.02439255      -0.01558872
O        6.07578150       1.30220860      12.15159157  T       0.00000000       0.00000000       0.00000000       0.00542994       0.01429135       0.00351588
O        6.12348751       4.06552255      12.16867944  T       0.00000000       0.00000000       0.00000000      -0.00254974      -0.01602715      -0.00328813
O        6.08860822       1.33993295       9.15545352  T       0.00000000       0.00000000       0.00000000      -0.01291301      -0.01038464       0.00810999
O        6.11007662       4.04333827       9.16091341  T       0.00000000       0.00000000       0.00000000      -0.00999691       0.02158888       0.01395036
O        6.10718343       1.35539432       6.10801899  F       0.00000000       0.00000000       0.00000000      -0.01810739      -0.02473223       0.03627916
O        6.10718534       4.05045008       6.10801162  F       0.00000000       0.00000000       0.00000000       0.00215118      -0.01463743       0.07368151
O        6.10718542       1.35146153       3.02679635  F       0.00000000       0.00000000       0.00000000      -0.00059203      -0.47152190       0.31502018
O        6.10718542       4.05438459       3.02679635  F       0.00000000       0.00000000       0.00000000      -0.00024989       0.47107247       0.31511862
O        9.12959497       9.50068861      12.15633960  T       0.00000000       0.00000000       0.00000000       0.00128076      -0.00107241       0.01440073
O        3.02005527       9.38004087      12.42047326  T       0.00000000       0.00000000       0.00000000       0.01181876       0.01111008       0.00063074
O        3.05866149       6.75752754       9.16198015  T       0.00000000       0.00000000       0.00000000      -0.02110728      -0.02368380       0.00903549
O        3.04087042       9.43043249       9.20525944  T       0.00000000       0.00000000       0.00000000      -0.00593146       0.01137178      -0.00931054
O        3.05359341       6.76124998       6.10801980  F       0.00000000       0.00000000       0.00000000       0.00443653       0.04699085       0.07707332
O        3.05359360       9.45629444       6.10802097  F       0.00000000       0.00000000       0.00000000      -0.01078402      -0.00952265       0.09099877
O        3.05359271       6.75730765       3.02679635  F       0.00000000       0.00000000       0.00000000       0.00001562      -0.47236920       0.31291547
O        3.05359271       9.46023072       3.02679635  F       0.00000000       0.00000000       0.00000000      -0.00005722       0.47146775       0.31276299
O        3.02593699       1.26374084      12.19640081  T       0.00000000       0.00000000       0.00000000      -0.01836150      -0.00932444       0.00684588
O        6.10718542       9.46023072       3.02679635  F       0.00000000       0.00000000       0.00000000      -0.00039365       0.47144267       0.31293762
O        6.10718542       6.75730765       3.02679635  F       0.00000000       0.00000000       0.00000000      -0.00033047      -0.47205608       0.31391773
O        6.10718028       9.45628983       6.10801454  F       0.00000000       0.00000000       0.00000000      -0.01059230      -0.02070690       0.09171136
O        6.10718760       6.76124043       6.10802244  F       0.00000000       0.00000000       0.00000000      -0.00171654       0.01369915       0.07050375
O        9.16608672       6.75416370       9.16331319  T       0.00000000       0.00000000       0.00000000       0.00088210      -0.01134296      -0.01231360
O        9.15028094       9.45116872       9.16778160  T       0.00000000       0.00000000       0.00000000       0.01110275       0.00989654      -0.00213123
O        9.16078073       6.76123572       6.10801818  F       0.00000000       0.00000000       0.00000000       0.00793724       0.00401089       0.05909870
O        9.16078059       9.45627785       6.10801483  F       0.00000000       0.00000000       0.00000000      -0.00578206      -0.01280593       0.07583771
O        9.16077813       6.75730765       3.02679635  F       0.00000000       0.00000000       0.00000000       0.00005132      -0.47145995       0.31471189
O        9.16077813       9.46023072       3.02679635  F       0.00000000       0.00000000       0.00000000      -0.00008780       0.47147896       0.31425133
O        9.12074450       1.30957379      12.15405958  T       0.00000000       0.00000000       0.00000000       0.01829852      -0.00411952       0.01376543
O        9.15991193       4.08257073      12.16320747  T       0.00000000       0.00000000       0.00000000       0.01083639      -0.00422721       0.00700002
O        3.05316208       4.04974443      12.19713804  T       0.00000000       0.00000000       0.00000000      -0.00832770      -0.00730794       0.00272331
O        9.15055705       1.34858947       9.15539558  T       0.00000000       0.00000000       0.00000000      -0.00234565      -0.02514455       0.00136419
O        9.16077827       1.35539012       6.10801450  F       0.00000000       0.00000000       0.00000000      -0.00581366      -0.00774709       0.04523006
O        9.16078421       4.05045012       6.10800209  F       0.00000000       0.00000000       0.00000000       0.00789105      -0.00141861       0.05667079
O        9.16077813       1.35146153       3.02679635  F       0.00000000       0.00000000       0.00000000      -0.00007997      -0.47122419       0.31578369
O        9.16077813       4.05438459       3.02679635  F       0.00000000       0.00000000       0.00000000       0.00008839       0.47117064       0.31569145
O        6.10647859       6.67681051      12.15412487  T       0.00000000       0.00000000       0.00000000      -0.00219932       0.00566682       0.01157177
O        6.10112782       9.49329978      12.17880143  T       0.00000000       0.00000000       0.00000000      -0.00008069       0.00174668      -0.00491272
O        6.10722103       6.75235994       9.16546268  T       0.00000000       0.00000000       0.00000000      -0.00312581       0.00464612       0.00713448
O        6.09424340       9.44546337       9.17798074  T       0.00000000       0.00000000       0.00000000       0.01839476       0.01249294      -0.00026541
O        9.16581489       4.04910637       9.15924887  T       0.00000000       0.00000000       0.00000000       0.00508734       0.00715714      -0.00564006
O        3.04427418       1.33740728       9.17331515  T       0.00000000       0.00000000       0.00000000      -0.01246878       0.01403575       0.01708355
O        9.16127275       6.69382511      12.15801072  T       0.00000000       0.00000000       0.00000000       0.00404934       0.00673279      -0.00674749
O       12.14039419       9.51271297      12.16061827  T       0.00000000       0.00000000       0.00000000       0.01922281       0.01577938      -0.01207788
O        0.00000000       6.75730765       3.02679635  F       0.00000000       0.00000000       0.00000000       0.00028123      -0.47182700       0.31407371
O        3.05779856       4.03316166       9.18545580  T       0.00000000       0.00000000       0.00000000      -0.01200066       0.00712823      -0.01240820
O       -0.03809476       1.31320230      12.16259041  T       0.00000000       0.00000000       0.00000000       0.02583321       0.01342241      -0.01762892
O        0.00000951       9.45630243       6.10801529  F       0.00000000       0.00000000       0.00000000      -0.00517037      -0.02198922       0.08852685
O       12.20486544       4.06941148      12.17676860  T       0.00000000       0.00000000       0.00000000       0.00352130       0.00135500      -0.00468103
O        0.00000182       6.76124509       6.10800952  F       0.00000000       0.00000000       0.00000000       0.01428785       0.01365081       0.06911298
O       -0.01132098       9.44456517       9.17668881  T       0.00000000       0.00000000       0.00000000       0.00176398       0.02502224      -0.00889084
O       -0.00272405       1.34386443       9.15927734  T       0.00000000       0.00000000       0.00000000       0.00910022      -0.03044088      -0.00075412
O        0.00918713       6.75384682       9.16885752  T       0.00000000       0.00000000       0.00000000      -0.00122382      -0.01344171      -0.01694430
O       12.22237417       4.04311767       9.16638652  T       0.00000000       0.00000000       0.00000000       0.00077893       0.03004741      -0.01082356
O       12.21015940       6.68190178      12.16222063  T       0.00000000       0.00000000       0.00000000       0.00834642       0.00072583      -0.00489576
O        0.00000448       1.35539672       6.10801283  F       0.00000000       0.00000000       0.00000000       0.00043212      -0.01472892       0.04673181
O        0.00000331       4.05045002       6.10801189  F       0.00000000       0.00000000       0.00000000       0.00791123      -0.01618197       0.07725162
O        3.05359271       4.05438459       3.02679635  F       0.00000000       0.00000000       0.00000000       0.00002425       0.47130065       0.31258507
O        0.00000000       9.46023072       3.02679635  F       0.00000000       0.00000000       0.00000000       0.00005435       0.47152278       0.31307447
O        3.05359105       4.05044320       6.10802763  F       0.00000000       0.00000000       0.00000000       0.00537507      -0.04952964       0.12792497
O        3.05359271       1.35146153       3.02679635  F       0.00000000       0.00000000       0.00000000      -0.00002293      -0.47125860       0.31189445
O        3.05359652       1.35540103       6.10801944  F       0.00000000       0.00000000       0.00000000      -0.00629370       0.01294369       0.07601890
O        0.00000000       4.05438459       3.02679635  F       0.00000000       0.00000000       0.00000000       0.00020190       0.47097729       0.31483558
O        0.00000000       1.35146153       3.02679635  F       0.00000000       0.00000000       0.00000000       0.00024009      -0.47144900       0.31484732
Pd       7.63869916       5.38185867      12.01003003  T       0.00000000       0.00000000       0.00000000      -0.00954850       0.03629314       0.00488182
Pd      10.68662299       5.38063470      12.01696606  T       0.00000000       0.00000000       0.00000000      -0.03202300       0.02448638       0.00162867
Pd       0.00000000       8.10876919       1.50000000  F       0.00000000       0.00000000       0.00000000      -0.00010102       0.00023342      -0.90403003
Pd       9.15305351       8.09680545      10.75994915  T       0.00000000       0.00000000       0.00000000      -0.01469810       0.01812635       0.01264792
Pd       1.52679635       0.00000000       3.02679635  F       0.00000000       0.00000000       0.00000000      -0.00001637      -0.00004220       0.04938059
Pd       9.16077813       2.70292306       1.50000000  F       0.00000000       0.00000000       0.00000000      -0.00003814       0.00005037      -0.90443706
Pd      10.68757448       0.00000000       3.02679635  F       0.00000000       0.00000000       0.00000000       0.00031160      -0.00014974       0.04770472
Pd      10.69598598       5.40039131       9.13530434  T       0.00000000       0.00000000       0.00000000      -0.01663260       0.00706860       0.00124951
Pd       1.45455594       0.00380601      12.07589419  T       0.00000000       0.00000000       0.00000000       0.01854478      -0.02010385      -0.00503121
Pd       9.16077900       2.70292450       4.56559698  F       0.00000000       0.00000000       0.00000000       0.00036215       0.00082655       0.10798915
Pd      10.68756280      10.81168006       6.11657659  F       0.00000000       0.00000000       0.00000000      -0.00026268      -0.00773574      -0.03783520
Pd       9.16077776       8.10875607       4.56559406  F       0.00000000       0.00000000       0.00000000       0.00018497       0.00042641       0.11553191
Pd       1.52678677       0.00000067       6.11658292  F       0.00000000       0.00000000       0.00000000       0.00469764      -0.00764593      -0.05030531
Pd       9.16057695       8.10656152       7.64868146  T       0.00000000       0.00000000       0.00000000      -0.00604557      -0.00313445       0.01095633
Pd       9.16065379       2.70113742       7.64504622  T       0.00000000       0.00000000       0.00000000      -0.00612346       0.00145231       0.00195387
Pd      10.67867925      -0.00760368       9.13480015  T       0.00000000       0.00000000       0.00000000      -0.00618375       0.00977068       0.00323526
Pd       0.00000135       2.70292705       4.56560641  F       0.00000000       0.00000000       0.00000000       0.00005969       0.00301569       0.11290385
Pd       1.51842926      10.79268205       9.15040193  T       0.00000000       0.00000000       0.00000000      -0.00879090       0.00296353      -0.00739945
Pd       9.14971016       2.69828944      10.74984754  T       0.00000000       0.00000000       0.00000000      -0.01275262       0.00675491       0.00297003
Pd       6.09856413       8.09386719      10.77007249  T       0.00000000       0.00000000       0.00000000       0.00458518       0.00682462      -0.01242243
Pd      10.63967438      10.81936213      12.00355423  T       0.00000000       0.00000000       0.00000000      -0.02205159       0.00606314      -0.00177726
Pd       0.00220687       2.69766685       7.64700042  T       0.00000000       0.00000000       0.00000000       0.00778729       0.01735332       0.00266324
Pd      10.68757280       5.40584816       6.11657764  F       0.00000000       0.00000000       0.00000000       0.00009849      -0.00274949      -0.03518708
Pd       9.16077813       8.10876919       1.50000000  F       0.00000000       0.00000000       0.00000000      -0.00002756       0.00007957      -0.90442104
Pd      10.68757448       5.40584612       3.02679635  F       0.00000000       0.00000000       0.00000000       0.00010790       0.00003570       0.04848088
Pd      12.21278017       2.69236304      10.75174207  T       0.00000000       0.00000000       0.00000000      -0.00901815       0.01605433       0.01268242
Pd       4.56608869      -0.01943621       9.15183409  T       0.00000000       0.00000000       0.00000000       0.01093724      -0.00531911       0.00009924
Pd       7.63397856       5.40585179       6.11657833  F       0.00000000       0.00000000       0.00000000      -0.00094000      -0.00250726      -0.03497383
Pd       7.63803900       5.40039252       9.13181061  T       0.00000000       0.00000000       0.00000000      -0.00824819       0.00620027       0.00800474
Pd       4.59318419       5.34973326      12.03115914  T       0.00000000       0.00000000       0.00000000       0.01256376      -0.00310463       0.00576686
Pd       3.03142839       8.02860293      10.77258377  T       0.00000000       0.00000000       0.00000000       0.01404391       0.01015633       0.01139091
Pd       4.58038906       0.00000000       3.02679635  F       0.00000000       0.00000000       0.00000000       0.00032916      -0.00003287       0.05000099
Pd       4.58390715       5.39465662       9.14380217  T       0.00000000       0.00000000       0.00000000       0.00510014      -0.01023195       0.00448491
Pd       3.05082606       8.11205035       7.65297192  T       0.00000000       0.00000000       0.00000000       0.00592661       0.00423844       0.00030437
Pd       3.05359494       2.70292824       4.56560681  F       0.00000000       0.00000000       0.00000000       0.00020892       0.00411887       0.13730548
Pd       3.05359271       2.70292306       1.50000000  F       0.00000000       0.00000000       0.00000000      -0.00000137      -0.00011327      -0.90325381
Pd       4.58039501       5.40584640       6.11658908  F       0.00000000       0.00000000       0.00000000      -0.00345212      -0.00479587      -0.04276837
Pd       4.58040505      10.81168838       6.11658203  F       0.00000000       0.00000000       0.00000000      -0.00091346      -0.00992335      -0.04829741
Pd       4.58038906       5.40584612       3.02679635  F       0.00000000       0.00000000       0.00000000      -0.00054493       0.00013793       0.04910428
Pd       3.05359271       8.10876919       1.50000000  F       0.00000000       0.00000000       0.00000000      -0.00000016       0.00031582      -0.90356417
Pd       3.05278666       2.69565004       7.65623473  T       0.00000000       0.00000000       0.00000000      -0.00311080       0.00962312       0.01159386
Pd       4.58427458      -0.00584675      12.09714340  T       0.00000000       0.00000000       0.00000000       0.01949007      -0.01499707      -0.01382694
Pd       3.04162846       2.66544142      10.78373586  T       0.00000000       0.00000000       0.00000000       0.01137013      -0.02335054      -0.00484243
Pd       3.05359569       8.10876742       4.56559865  F       0.00000000       0.00000000       0.00000000       0.00066327      -0.00272605       0.12118960
Pd       6.10718542       2.70292306       1.50000000  F       0.00000000       0.00000000       0.00000000       0.00015730       0.00001377      -0.90406823
Pd       7.63398177       0.00000000       3.02679635  F       0.00000000       0.00000000       0.00000000       0.00014675      -0.00023181       0.04776298
Pd       1.52193178       5.35730277      12.03546898  T       0.00000000       0.00000000       0.00000000      -0.01535234       0.01696990       0.00615360
Pd       6.10269665       8.10594440       7.65151958  T       0.00000000       0.00000000       0.00000000      -0.00790743      -0.00016009       0.00095594
Pd       0.00000079       8.10876600       4.56559869  F       0.00000000       0.00000000       0.00000000      -0.00035864       0.00092212       0.12055005
Pd       6.10718651       8.10875952       4.56558968  F       0.00000000       0.00000000       0.00000000       0.00078502       0.00146206       0.12204930
Pd       1.52680247       5.40584247       6.11658534  F       0.00000000       0.00000000       0.00000000       0.00408556      -0.00480865      -0.04539654
Pd       7.63398177       5.40584612       3.02679635  F       0.00000000       0.00000000       0.00000000      -0.00032812       0.00010886       0.04823965
Pd       6.10718542       8.10876919       1.50000000  F       0.00000000       0.00000000       0.00000000       0.00011354       0.00030206      -0.90393619
Pd       0.00206609       8.10599950       7.65099906  T       0.00000000       0.00000000       0.00000000      -0.00178998      -0.01328457       0.00234504
Pd       7.60695788      10.80792822      12.00598630  T       0.00000000       0.00000000       0.00000000       0.00361500      -0.02601083      -0.00221107
Pd       6.09127921       2.68857325      10.74618720  T       0.00000000       0.00000000       0.00000000       0.00992500       0.00189783       0.00255708
Pd       1.53520926       5.39518519       9.14247873  T       0.00000000       0.00000000       0.00000000      -0.02125182      -0.00232581       0.00919948
Pd       7.62114527      -0.00851168       9.13426024  T       0.00000000       0.00000000       0.00000000      -0.00095871      -0.00132537       0.00972398
Pd       6.10199853       2.69650580       7.64551720  T       0.00000000       0.00000000       0.00000000      -0.00627032       0.01792627      -0.00480109
Pd      12.19866560       8.09708781      10.77062419  T       0.00000000       0.00000000       0.00000000       0.00276493       0.01196888       0.00685682
Pd       7.63399583      10.81167532       6.11657540  F       0.00000000       0.00000000       0.00000000       0.00244452      -0.00918343      -0.03661862
Pd       6.10718592       2.70292523       4.56558724  F       0.00000000       0.00000000       0.00000000       0.00039615       0.00363297       0.11072184
Pd       1.52679635       5.40584612       3.02679635  F       0.00000000       0.00000000       0.00000000       0.00042607       0.00017721       0.04891851
Pd       0.00000000       2.70292306       1.50000000  F       0.00000000       0.00000000       0.00000000      -0.00013162       0.00004556      -0.90398714
C        2.98026065       8.82081384      13.72089700  T       0.00000000       0.00000000       0.00000000       0.02821049       0.00206478      -0.01754780
O        3.94418856       8.81993557      14.45689815  T       0.00000000       0.00000000       0.00000000      -0.02073534       0.01017958      -0.00437854
O        1.73169212       8.40842916      13.94757747  T       0.00000000       0.00000000       0.00000000       0.00862528      -0.01494812       0.00499279
C        1.45359126       7.71178632      15.19176837  T       0.00000000       0.00000000       0.00000000       0.01199634      -0.01012146      -0.00243449
H        1.83043405       8.29396685      16.04505079  T       0.00000000       0.00000000       0.00000000       0.00977168      -0.00375506       0.01550270
H        0.36083049       7.62512021      15.21107521  T       0.00000000       0.00000000       0.00000000       0.00052997      -0.00047214      -0.00275586
H        1.92110510       6.71507050      15.16816871  T       0.00000000       0.00000000       0.00000000       0.02623079       0.01707931      -0.00502970
