135
Lattice="12.21437083684855 0.0 7e-16 1.7e-15 10.811692246786171 7e-16 0.0 0.0 30.687574482242482" Properties=species:S:1:pos:R:3:move_mask:L:1:momenta:R:3:forces:R:3 idx=104 E_MACE=-713.2089474637436 d_min=2.0009131014979036 d_reactive=3.0453363311951063 rank=4138 dE_rel_meV=2920.9079243310043 converged=T energy=-713.2089474637436 stress="-0.00019405332989773025 6.463766187462775e-07 0.0002751111164629699 6.463766187462775e-07 -0.0012716993596134096 0.0002004709946762835 0.0002751111164629699 0.0002004709946762835 -0.003817879574565625" pbc="T T T"
O        3.10928069       6.71275732      12.15993152  T       0.00000000       0.00000000       0.00000000       0.01933018       0.00187835       0.00039659
O        6.16574784       1.30358681      12.16388813  T       0.00000000       0.00000000       0.00000000      -0.01460458      -0.00025146       0.00389964
O        6.16036662       4.09928602      12.16817679  T       0.00000000       0.00000000       0.00000000       0.01136811       0.00612222       0.00026884
O        6.14614618       1.35713856       9.16620768  T       0.00000000       0.00000000       0.00000000       0.00200655       0.01698889      -0.00078024
O        6.14456278       4.05347603       9.16763853  T       0.00000000       0.00000000       0.00000000       0.00692925      -0.00989607      -0.00195691
O        6.10718343       1.35539432       6.10801899  F       0.00000000       0.00000000       0.00000000       0.01970385       0.01985382       0.07997800
O        6.10718534       4.05045008       6.10801162  F       0.00000000       0.00000000       0.00000000       0.01968611      -0.00803345       0.07115699
O        6.10718542       1.35146153       3.02679635  F       0.00000000       0.00000000       0.00000000       0.00067195      -0.47153125       0.31399078
O        6.10718542       4.05438459       3.02679635  F       0.00000000       0.00000000       0.00000000       0.00071821       0.47135931       0.31386256
O        9.22632205       9.51446253      12.17086825  T       0.00000000       0.00000000       0.00000000      -0.01226237      -0.01300631      -0.00293194
O        3.11090379       9.50685978      12.16813338  T       0.00000000       0.00000000       0.00000000       0.00667973       0.00902492       0.00552974
O        3.09529836       6.76484223       9.16548277  T       0.00000000       0.00000000       0.00000000      -0.00561204       0.00987814       0.00646735
O        3.09541418       9.46147501       9.16213825  T       0.00000000       0.00000000       0.00000000      -0.00214657      -0.00576013       0.01032919
O        3.05359341       6.76124998       6.10801980  F       0.00000000       0.00000000       0.00000000       0.01915683       0.01608504       0.07638824
O        3.05359360       9.45629444       6.10802097  F       0.00000000       0.00000000       0.00000000       0.02115379      -0.00241252       0.05783791
O        3.05359271       6.75730765       3.02679635  F       0.00000000       0.00000000       0.00000000       0.00085231      -0.47121293       0.31443199
O        3.05359271       9.46023072       3.02679635  F       0.00000000       0.00000000       0.00000000       0.00084602       0.47117880       0.31514192
O        3.11879494       1.30660252      12.16860211  T       0.00000000       0.00000000       0.00000000      -0.00698896      -0.00477847      -0.00487176
O        6.10718542       9.46023072       3.02679635  F       0.00000000       0.00000000       0.00000000       0.00072838       0.47113600       0.31555225
O        6.10718542       6.75730765       3.02679635  F       0.00000000       0.00000000       0.00000000       0.00072446      -0.47139547       0.31468713
O        6.10718028       9.45628983       6.10801454  F       0.00000000       0.00000000       0.00000000       0.02266480      -0.00185843       0.05314435
O        6.10718760       6.76124043       6.10802244  F       0.00000000       0.00000000       0.00000000       0.01843113       0.00062004       0.06249345
O        9.19482542       6.76848694       9.17907261  T       0.00000000       0.00000000       0.00000000       0.02006243       0.00132462      -0.00294168
O        9.20375156       9.47089574       9.15884616  T       0.00000000       0.00000000       0.00000000       0.00455118      -0.01687239       0.00167031
O        9.16078073       6.76123572       6.10801818  F       0.00000000       0.00000000       0.00000000       0.02746860       0.00760304       0.09337010
O        9.16078059       9.45627785       6.10801483  F       0.00000000       0.00000000       0.00000000       0.03073774      -0.01204415       0.06392229
O        9.16077813       6.75730765       3.02679635  F       0.00000000       0.00000000       0.00000000       0.00113031      -0.47093010       0.31388784
O        9.16077813       9.46023072       3.02679635  F       0.00000000       0.00000000       0.00000000       0.00084243       0.47060092       0.31575484
O        9.21270566       1.31035849      12.15321001  T       0.00000000       0.00000000       0.00000000       0.01318443       0.01858329       0.00505693
O        9.20691955       4.10234734      12.16640142  T       0.00000000       0.00000000       0.00000000      -0.01264646       0.00116828      -0.00317401
O        3.11039882       4.09893003      12.17444909  T       0.00000000       0.00000000       0.00000000      -0.00896227       0.00301330      -0.00925800
O        9.19894732       1.36385843       9.16702517  T       0.00000000       0.00000000       0.00000000       0.01080741      -0.00236773      -0.00744147
O        9.16077827       1.35539012       6.10801450  F       0.00000000       0.00000000       0.00000000       0.02313275       0.04287883       0.09968223
O        9.16078421       4.05045012       6.10800209  F       0.00000000       0.00000000       0.00000000       0.03000923       0.01542226       0.06511177
O        9.16077813       1.35146153       3.02679635  F       0.00000000       0.00000000       0.00000000       0.00080223      -0.47081903       0.31482526
O        9.16077813       4.05438459       3.02679635  F       0.00000000       0.00000000       0.00000000       0.00113860       0.47122078       0.31398387
O        6.15809581       6.71151305      12.14808963  T       0.00000000       0.00000000       0.00000000      -0.00403373       0.00317539       0.04031101
O        6.16847392       9.50466688      12.16211974  T       0.00000000       0.00000000       0.00000000      -0.01769261       0.00716902       0.01308187
O        6.14340694       6.76225253       9.16225065  T       0.00000000       0.00000000       0.00000000       0.00105143       0.00827543       0.01002380
O        6.14987147       9.46212032       9.15674430  T       0.00000000       0.00000000       0.00000000      -0.00928644      -0.01263438       0.03028399
O        9.20216941       4.06315124       9.17809242  T       0.00000000       0.00000000       0.00000000      -0.01114786      -0.01115106       0.00772568
O        3.10121927       1.35950879       9.16946120  T       0.00000000       0.00000000       0.00000000      -0.02344519       0.00491557      -0.01125516
O        9.18724247       6.74194759      12.15266088  T       0.00000000       0.00000000       0.00000000       0.00289602      -0.01257563       0.00525610
O       12.27296800       9.51632551      12.16039556  T       0.00000000       0.00000000       0.00000000      -0.00212534      -0.01380392       0.01415161
O        0.00000000       6.75730765       3.02679635  F       0.00000000       0.00000000       0.00000000       0.00033553      -0.47082432       0.31450348
O        3.09162865       4.05456564       9.16997367  T       0.00000000       0.00000000       0.00000000       0.01141163      -0.02026047      -0.01401179
O        0.06939578       1.31236706      12.15184596  T       0.00000000       0.00000000       0.00000000      -0.01795792      -0.00104954      -0.00044896
O        0.00000951       9.45630243       6.10801529  F       0.00000000       0.00000000       0.00000000       0.01079912      -0.00035139       0.05368166
O       12.27871676       4.10511668      12.15906028  T       0.00000000       0.00000000       0.00000000       0.00983155      -0.01227880       0.00816723
O        0.00000182       6.76124509       6.10800952  F       0.00000000       0.00000000       0.00000000       0.00921992       0.00336097       0.08949525
O        0.04172654       9.47368440       9.15467267  T       0.00000000       0.00000000       0.00000000      -0.01362532      -0.01497999       0.00830346
O        0.04547428       1.36287563       9.16413207  T       0.00000000       0.00000000       0.00000000      -0.01283425      -0.00234401       0.00365092
O        0.04453503       6.76879685       9.17307623  T       0.00000000       0.00000000       0.00000000      -0.02481744       0.00324456       0.01320152
O       12.25549915       4.06380573       9.17517654  T       0.00000000       0.00000000       0.00000000      -0.02408698      -0.01630399       0.02110291
O       12.29592279       6.73328335      12.13028044  T       0.00000000       0.00000000       0.00000000      -0.00255675       0.00098378       0.01147124
O        0.00000448       1.35539672       6.10801283  F       0.00000000       0.00000000       0.00000000       0.02038230       0.03828324       0.09616970
O        0.00000331       4.05045002       6.10801189  F       0.00000000       0.00000000       0.00000000       0.01081406       0.02123903       0.06190923
O        3.05359271       4.05438459       3.02679635  F       0.00000000       0.00000000       0.00000000       0.00080044       0.47126182       0.31373780
O        0.00000000       9.46023072       3.02679635  F       0.00000000       0.00000000       0.00000000       0.00074060       0.47062129       0.31626043
O        3.05359105       4.05044320       6.10802763  F       0.00000000       0.00000000       0.00000000       0.01744200      -0.01282639       0.07558262
O        3.05359271       1.35146153       3.02679635  F       0.00000000       0.00000000       0.00000000       0.00087101      -0.47134154       0.31374470
O        3.05359652       1.35540103       6.10801944  F       0.00000000       0.00000000       0.00000000       0.02750141       0.02588713       0.08731742
O        0.00000000       4.05438459       3.02679635  F       0.00000000       0.00000000       0.00000000       0.00033650       0.47131052       0.31415780
O        0.00000000       1.35146153       3.02679635  F       0.00000000       0.00000000       0.00000000       0.00081354      -0.47092747       0.31485046
Pd       7.68505417       5.40946414      12.02082547  T       0.00000000       0.00000000       0.00000000       0.00541277      -0.01516105      -0.01762331
Pd      10.74118028       5.43111190      12.10361262  T       0.00000000       0.00000000       0.00000000       0.00225950       0.00745132       0.00947471
Pd       0.00000000       8.10876919       1.50000000  F       0.00000000       0.00000000       0.00000000       0.00009840      -0.00042766      -0.90365895
Pd       9.20590466       8.12916061      10.75371898  T       0.00000000       0.00000000       0.00000000      -0.01488524      -0.00838904      -0.02431257
Pd       1.52679635       0.00000000       3.02679635  F       0.00000000       0.00000000       0.00000000      -0.00139044       0.00033505       0.04859156
Pd       9.16077813       2.70292306       1.50000000  F       0.00000000       0.00000000       0.00000000      -0.00011401       0.00024292      -0.90356235
Pd      10.68757448       0.00000000       3.02679635  F       0.00000000       0.00000000       0.00000000      -0.00138953       0.00039486       0.04886532
Pd      10.72829067       5.41614876       9.18749287  T       0.00000000       0.00000000       0.00000000      -0.00738410       0.00889732       0.01226972
Pd       1.59003259       0.00471962      12.01472438  T       0.00000000       0.00000000       0.00000000      -0.00957740       0.01242879      -0.01285387
Pd       9.16077900       2.70292450       4.56559698  F       0.00000000       0.00000000       0.00000000      -0.00256465      -0.00255039       0.11368168
Pd      10.68756280      10.81168006       6.11657659  F       0.00000000       0.00000000       0.00000000      -0.01009686       0.01114030      -0.04290236
Pd       9.16077776       8.10875607       4.56559406  F       0.00000000       0.00000000       0.00000000      -0.00236684      -0.00220622       0.11337244
Pd       1.52678677       0.00000067       6.11658292  F       0.00000000       0.00000000       0.00000000      -0.00454580       0.00954656      -0.03143969
Pd       9.18597000       8.11129120       7.64897192  T       0.00000000       0.00000000       0.00000000      -0.01145098      -0.01290280       0.00782087
Pd       9.18521211       2.71027964       7.64965487  T       0.00000000       0.00000000       0.00000000      -0.00299941      -0.00943425       0.01450273
Pd      10.72992191       0.01279339       9.13712698  T       0.00000000       0.00000000       0.00000000      -0.00831606       0.01111929      -0.01595196
Pd       0.00000135       2.70292705       4.56560641  F       0.00000000       0.00000000       0.00000000      -0.00348659      -0.00273563       0.11317900
Pd       1.57324105      10.82047072       9.13256508  T       0.00000000       0.00000000       0.00000000      -0.01127297       0.00265214       0.00791451
Pd       9.20704756       2.71484926      10.75913945  T       0.00000000       0.00000000       0.00000000       0.00541712      -0.03205172       0.00196112
Pd       6.15346663       8.11363591      10.75480030  T       0.00000000       0.00000000       0.00000000       0.00870998      -0.00178567      -0.02593205
Pd      10.74981927      10.82494449      12.01641355  T       0.00000000       0.00000000       0.00000000      -0.00628303      -0.00292318      -0.02236576
Pd       0.01814197       2.71040498       7.64915185  T       0.00000000       0.00000000       0.00000000      -0.00576253      -0.01076548       0.00460001
Pd      10.68757280       5.40584816       6.11657764  F       0.00000000       0.00000000       0.00000000      -0.00944687       0.00783914      -0.06818738
Pd       9.16077813       8.10876919       1.50000000  F       0.00000000       0.00000000       0.00000000      -0.00014142      -0.00043493      -0.90358435
Pd      10.68757448       5.40584612       3.02679635  F       0.00000000       0.00000000       0.00000000      -0.00125968       0.00005226       0.04323546
Pd      12.26879161       2.71288832      10.75711691  T       0.00000000       0.00000000       0.00000000      -0.00677177      -0.00263818       0.00325607
Pd       4.62334093       0.00252377       9.13112772  T       0.00000000       0.00000000       0.00000000      -0.00493569       0.00092024       0.01986297
Pd       7.63397856       5.40585179       6.11657833  F       0.00000000       0.00000000       0.00000000      -0.01021585       0.00263694      -0.03606620
Pd       7.67012335       5.41027525       9.14377584  T       0.00000000       0.00000000       0.00000000      -0.00306594       0.00599684      -0.00338319
Pd       4.63464002       5.40502428      12.01114848  T       0.00000000       0.00000000       0.00000000      -0.00128891      -0.00834626       0.01092931
Pd       3.10464870       8.11421728      10.76226665  T       0.00000000       0.00000000       0.00000000      -0.00328375      -0.00541966      -0.02639598
Pd       4.58038906       0.00000000       3.02679635  F       0.00000000       0.00000000       0.00000000      -0.00137945       0.00020005       0.04847016
Pd       4.61894357       5.40730039       9.13446197  T       0.00000000       0.00000000       0.00000000      -0.00335636       0.00693300       0.01525886
Pd       3.07555888       8.11146362       7.64852973  T       0.00000000       0.00000000       0.00000000      -0.00888708      -0.01731101      -0.00277597
Pd       3.05359494       2.70292824       4.56560681  F       0.00000000       0.00000000       0.00000000      -0.00325068       0.00005453       0.12405430
Pd       3.05359271       2.70292306       1.50000000  F       0.00000000       0.00000000       0.00000000      -0.00006801       0.00001191      -0.90411881
Pd       4.58039501       5.40584640       6.11658908  F       0.00000000       0.00000000       0.00000000      -0.01052774       0.00005201      -0.04150435
Pd       4.58040505      10.81168838       6.11658203  F       0.00000000       0.00000000       0.00000000      -0.01068301       0.00663017      -0.04069981
Pd       4.58038906       5.40584612       3.02679635  F       0.00000000       0.00000000       0.00000000      -0.00133566       0.00001242       0.04780012
Pd       3.05359271       8.10876919       1.50000000  F       0.00000000       0.00000000       0.00000000      -0.00005398      -0.00011615      -0.90423696
Pd       3.07713483       2.70505475       7.65174303  T       0.00000000       0.00000000       0.00000000      -0.01561278       0.00225279      -0.01208735
Pd       4.64091122      -0.00261667      12.01729899  T       0.00000000       0.00000000       0.00000000       0.00172392       0.00965875       0.00081679
Pd       3.10815496       2.70570623      10.76825199  T       0.00000000       0.00000000       0.00000000      -0.01334223      -0.01131868      -0.00160810
Pd       3.05359569       8.10876742       4.56559865  F       0.00000000       0.00000000       0.00000000      -0.00310255      -0.00211608       0.11663051
Pd       6.10718542       2.70292306       1.50000000  F       0.00000000       0.00000000       0.00000000       0.00000889       0.00003971      -0.90420610
Pd       7.63398177       0.00000000       3.02679635  F       0.00000000       0.00000000       0.00000000      -0.00112129       0.00027345       0.04870791
Pd       1.58911427       5.40636607      12.01355245  T       0.00000000       0.00000000       0.00000000      -0.01074301      -0.01984530      -0.01729980
Pd       6.12626485       8.10954507       7.64649383  T       0.00000000       0.00000000       0.00000000       0.00589167       0.00259302      -0.00320308
Pd       0.00000079       8.10876600       4.56559869  F       0.00000000       0.00000000       0.00000000      -0.00361598      -0.00270819       0.10891383
Pd       6.10718651       8.10875952       4.56558968  F       0.00000000       0.00000000       0.00000000      -0.00283687      -0.00073215       0.11230055
Pd       1.52680247       5.40584247       6.11658534  F       0.00000000       0.00000000       0.00000000      -0.00509632       0.00461993      -0.03934959
Pd       7.63398177       5.40584612       3.02679635  F       0.00000000       0.00000000       0.00000000      -0.00113110       0.00003390       0.04841741
Pd       6.10718542       8.10876919       1.50000000  F       0.00000000       0.00000000       0.00000000      -0.00001667      -0.00009594      -0.90430139
Pd       0.01527796       8.11235422       7.64724385  T       0.00000000       0.00000000       0.00000000       0.01235995      -0.01791975      -0.01423804
Pd       7.69284436      10.81088743      12.01791315  T       0.00000000       0.00000000       0.00000000       0.00965060       0.01649823      -0.01150308
Pd       6.15387729       2.70356785      10.76461688  T       0.00000000       0.00000000       0.00000000       0.00802986       0.00331184      -0.00792910
Pd       1.57030037       5.41176216       9.14208280  T       0.00000000       0.00000000       0.00000000      -0.00591781       0.01669360      -0.00334207
Pd       7.67461700       0.00743790       9.13225120  T       0.00000000       0.00000000       0.00000000      -0.00084740      -0.00029089       0.00389266
Pd       6.12511368       2.70462885       7.65042461  T       0.00000000       0.00000000       0.00000000       0.00827676      -0.00081001      -0.01266304
Pd      12.26885406       8.13287913      10.74411446  T       0.00000000       0.00000000       0.00000000       0.01174199      -0.01490998      -0.03804280
Pd       7.63399583      10.81167532       6.11657540  F       0.00000000       0.00000000       0.00000000      -0.01181198       0.00789714      -0.03035129
Pd       6.10718592       2.70292523       4.56558724  F       0.00000000       0.00000000       0.00000000      -0.00277287       0.00034149       0.12184075
Pd       1.52679635       5.40584612       3.02679635  F       0.00000000       0.00000000       0.00000000      -0.00126384       0.00003957       0.04835161
Pd       0.00000000       2.70292306       1.50000000  F       0.00000000       0.00000000       0.00000000       0.00004841       0.00022170      -0.90356266
C       -1.73442813       2.53242519      14.76647787  T       0.00000000       0.00000000       0.00000000       0.00289890      -0.00879050       0.03272403
O       -2.52757696       2.71154861      15.57645801  T       0.00000000       0.00000000       0.00000000      -0.02444638      -0.02017193       0.01145634
O       10.69860985       5.49655372      14.10300212  T       0.00000000       0.00000000       0.00000000       0.01616150      -0.00324187      -0.02507981
C       10.97923658       6.74731000      14.69698410  T       0.00000000       0.00000000       0.00000000      -0.00053320       0.01329279       0.00598780
H       10.71088131       6.60279821      15.76423553  T       0.00000000       0.00000000       0.00000000      -0.01443981      -0.00819334       0.01941485
H       12.05042456       7.03094225      14.63495957  T       0.00000000       0.00000000       0.00000000      -0.01362910      -0.00674974      -0.01121277
H       10.36700940       7.57621229      14.28794729  T       0.00000000       0.00000000       0.00000000      -0.01650372       0.00133190       0.00108761
