135
Lattice="12.21437083684855 0.0 7e-16 1.7e-15 10.811692246786171 7e-16 0.0 0.0 30.687574482242482" Properties=species:S:1:pos:R:3:move_mask:L:1:momenta:R:3:forces:R:3 idx=4124 E_MACE=-715.3652274964106 d_min=1.4116041734784828 d_reactive=1.3326527255753018 rank=9 dE_rel_meV=764.627891663963 converged=T energy=-715.3652274964106 stress="-0.000554783071719982 6.666530431516949e-05 0.0002669368844765163 6.666530431516949e-05 -0.0014571761144175528 -0.00016903862976221047 0.0002669368844765163 -0.00016903862976221047 -0.003796473335799874" pbc="T T T"
O        3.07836112       6.70239673      12.18359981  T       0.00000000       0.00000000       0.00000000       0.01287090      -0.02178768      -0.01817795
O        6.17422588       1.33133516      12.18454906  T       0.00000000       0.00000000       0.00000000       0.00409818      -0.00277888       0.02559315
O        6.14952151       4.11262164      12.20326700  T       0.00000000       0.00000000       0.00000000       0.01726416      -0.00159598      -0.01224928
O        6.15671103       1.36097575       9.18024948  T       0.00000000       0.00000000       0.00000000       0.00150977      -0.00264875       0.00271185
O        6.14814366       4.05539648       9.17789516  T       0.00000000       0.00000000       0.00000000      -0.00184415       0.00713760       0.00002263
O        6.10718343       1.35539432       6.10801899  F       0.00000000       0.00000000       0.00000000       0.01932008       0.02979567       0.10694605
O        6.10718534       4.05045008       6.10801162  F       0.00000000       0.00000000       0.00000000       0.01080113      -0.03042629       0.09630686
O        6.10718542       1.35146153       3.02679635  F       0.00000000       0.00000000       0.00000000       0.00078582      -0.47161657       0.31257768
O        6.10718542       4.05438459       3.02679635  F       0.00000000       0.00000000       0.00000000       0.00056816       0.47110079       0.31166670
O        9.23200184       9.51095620      12.16881099  T       0.00000000       0.00000000       0.00000000       0.00084070      -0.02286704      -0.00549519
O        3.12662946       9.50783066      12.17332142  T       0.00000000       0.00000000       0.00000000      -0.01241810       0.01426770      -0.00366327
O        3.09816723       6.75991927       9.17712832  T       0.00000000       0.00000000       0.00000000      -0.00440600       0.00157263      -0.00357248
O        3.11330284       9.44975980       9.17603348  T       0.00000000       0.00000000       0.00000000      -0.02254364       0.00958592      -0.01396529
O        3.05359341       6.76124998       6.10801980  F       0.00000000       0.00000000       0.00000000       0.02788428       0.01464464       0.08116636
O        3.05359360       9.45629444       6.10802097  F       0.00000000       0.00000000       0.00000000       0.04286403      -0.03202481       0.09636087
O        3.05359271       6.75730765       3.02679635  F       0.00000000       0.00000000       0.00000000       0.00115443      -0.47150678       0.31266227
O        3.05359271       9.46023072       3.02679635  F       0.00000000       0.00000000       0.00000000       0.00129560       0.47179033       0.31305699
O        3.10008366       1.31251397      12.17165210  T       0.00000000       0.00000000       0.00000000      -0.01029035       0.00864439      -0.00496039
O        6.10718542       9.46023072       3.02679635  F       0.00000000       0.00000000       0.00000000       0.00081743       0.47225801       0.31228405
O        6.10718542       6.75730765       3.02679635  F       0.00000000       0.00000000       0.00000000       0.00059192      -0.47150251       0.31288559
O        6.10718028       9.45628983       6.10801454  F       0.00000000       0.00000000       0.00000000       0.02439123      -0.05641557       0.09554719
O        6.10718760       6.76124043       6.10802244  F       0.00000000       0.00000000       0.00000000       0.01674379       0.00169680       0.07863883
O        9.20531103       6.76019680       9.16778703  T       0.00000000       0.00000000       0.00000000      -0.01043040      -0.01358906       0.01609046
O        9.20698191       9.45238335       9.17101229  T       0.00000000       0.00000000       0.00000000      -0.00670627       0.00672744       0.01501576
O        9.16078073       6.76123572       6.10801818  F       0.00000000       0.00000000       0.00000000       0.01723147       0.01272111       0.06979681
O        9.16078059       9.45627785       6.10801483  F       0.00000000       0.00000000       0.00000000       0.01574672      -0.01840626       0.07938569
O        9.16077813       6.75730765       3.02679635  F       0.00000000       0.00000000       0.00000000       0.00058048      -0.47182343       0.31370158
O        9.16077813       9.46023072       3.02679635  F       0.00000000       0.00000000       0.00000000       0.00045072       0.47196849       0.31396682
O        9.24138021       1.30724174      12.16805753  T       0.00000000       0.00000000       0.00000000      -0.00733235       0.01140903      -0.00419039
O        9.21995694       4.06578496      12.16296304  T       0.00000000       0.00000000       0.00000000      -0.02439338      -0.00003004      -0.00252934
O        3.09058859       4.07201462      12.16590664  T       0.00000000       0.00000000       0.00000000       0.01951767       0.01563508      -0.00400957
O        9.20818209       1.34717168       9.15990809  T       0.00000000       0.00000000       0.00000000      -0.00645108       0.00043480      -0.00306263
O        9.16077827       1.35539012       6.10801450  F       0.00000000       0.00000000       0.00000000       0.01727829      -0.00083402       0.05794195
O        9.16078421       4.05045012       6.10800209  F       0.00000000       0.00000000       0.00000000       0.00423521      -0.00353492       0.06831915
O        9.16077813       1.35146153       3.02679635  F       0.00000000       0.00000000       0.00000000       0.00061053      -0.47121785       0.31518527
O        9.16077813       4.05438459       3.02679635  F       0.00000000       0.00000000       0.00000000       0.00045007       0.47132735       0.31495082
O        6.14819944       6.79926714      12.40983752  T       0.00000000       0.00000000       0.00000000      -0.00022513       0.03646924      -0.01783729
O        6.15948544       9.55645768      12.15382544  T       0.00000000       0.00000000       0.00000000      -0.01294935      -0.00025342       0.00553553
O        6.15016259       6.77288399       9.20132025  T       0.00000000       0.00000000       0.00000000       0.00873639       0.01053190      -0.01190978
O        6.15743488       9.44919210       9.16787097  T       0.00000000       0.00000000       0.00000000      -0.00160332       0.00369412       0.02399673
O        9.19463841       4.05085175       9.16081032  T       0.00000000       0.00000000       0.00000000       0.00018086       0.00104967       0.00714222
O        3.10636723       1.35052704       9.16178211  T       0.00000000       0.00000000       0.00000000      -0.00869352      -0.01181187       0.00046134
O        9.24708293       6.67543821      12.15257675  T       0.00000000       0.00000000       0.00000000       0.00439071      -0.00773016      -0.00207067
O       12.28134229       9.49255548      12.15851855  T       0.00000000       0.00000000       0.00000000      -0.00117083       0.00435430       0.00385245
O        0.00000000       6.75730765       3.02679635  F       0.00000000       0.00000000       0.00000000       0.00108596      -0.47158555       0.31518568
O        3.10322271       4.05313119       9.16770865  T       0.00000000       0.00000000       0.00000000      -0.00189330      -0.01471262      -0.01794081
O        0.07319015       1.29311504      12.14533595  T       0.00000000       0.00000000       0.00000000      -0.01946517       0.00044028       0.02752630
O        0.00000951       9.45630243       6.10801529  F       0.00000000       0.00000000       0.00000000       0.03956027      -0.00242510       0.06106318
O       12.27487898       4.07177969      12.15206257  T       0.00000000       0.00000000       0.00000000      -0.01273352       0.01078781       0.00943216
O        0.00000182       6.76124509       6.10800952  F       0.00000000       0.00000000       0.00000000       0.02962255      -0.00134437       0.05105539
O        0.05459737       9.45253281       9.16383488  T       0.00000000       0.00000000       0.00000000      -0.01030397      -0.00486214      -0.00435681
O        0.05597741       1.34298101       9.14784536  T       0.00000000       0.00000000       0.00000000      -0.02318283      -0.00456138       0.02234632
O        0.04334271       6.75389474       9.15815374  T       0.00000000       0.00000000       0.00000000       0.00057265      -0.00910096       0.00202861
O       12.26103271       4.04734293       9.15645139  T       0.00000000       0.00000000       0.00000000      -0.01372714       0.00572833       0.00589486
O       12.26357958       6.69411478      12.14709982  T       0.00000000       0.00000000       0.00000000      -0.00586902      -0.01146043       0.01610717
O        0.00000448       1.35539672       6.10801283  F       0.00000000       0.00000000       0.00000000       0.03653049      -0.01518264       0.03003656
O        0.00000331       4.05045002       6.10801189  F       0.00000000       0.00000000       0.00000000       0.02877076       0.00828971       0.05017783
O        3.05359271       4.05438459       3.02679635  F       0.00000000       0.00000000       0.00000000       0.00137139       0.47106793       0.31393534
O        0.00000000       9.46023072       3.02679635  F       0.00000000       0.00000000       0.00000000       0.00116705       0.47148407       0.31501460
O        3.05359105       4.05044320       6.10802763  F       0.00000000       0.00000000       0.00000000       0.02907846      -0.00291005       0.07408330
O        3.05359271       1.35146153       3.02679635  F       0.00000000       0.00000000       0.00000000       0.00123594      -0.47100784       0.31444698
O        3.05359652       1.35540103       6.10801944  F       0.00000000       0.00000000       0.00000000       0.02947680       0.01108124       0.07026610
O        0.00000000       4.05438459       3.02679635  F       0.00000000       0.00000000       0.00000000       0.00110691       0.47119476       0.31613021
O        0.00000000       1.35146153       3.02679635  F       0.00000000       0.00000000       0.00000000       0.00115563      -0.47121638       0.31657486
Pd       7.71899686       5.36997318      12.06504694  T       0.00000000       0.00000000       0.00000000       0.03959279      -0.00473859      -0.01028722
Pd      10.75312840       5.37163760      11.99473269  T       0.00000000       0.00000000       0.00000000       0.01351485       0.01564267       0.02371313
Pd       0.00000000       8.10876919       1.50000000  F       0.00000000       0.00000000       0.00000000      -0.00011204       0.00004813      -0.90447175
Pd       9.21858536       8.10051303      10.77184202  T       0.00000000       0.00000000       0.00000000      -0.00686297      -0.00337392      -0.03851526
Pd       1.52679635       0.00000000       3.02679635  F       0.00000000       0.00000000       0.00000000      -0.00136614      -0.00019488       0.04829982
Pd       9.16077813       2.70292306       1.50000000  F       0.00000000       0.00000000       0.00000000       0.00015967       0.00003948      -0.90408508
Pd      10.68757448       0.00000000       3.02679635  F       0.00000000       0.00000000       0.00000000      -0.00191900      -0.00026551       0.04795098
Pd      10.72970974       5.40005973       9.12952116  T       0.00000000       0.00000000       0.00000000      -0.00613583       0.00564592       0.00603400
Pd       1.59393157      -0.01096899      12.01222546  T       0.00000000       0.00000000       0.00000000      -0.01541874      -0.00514052       0.01181970
Pd       9.16077900       2.70292450       4.56559698  F       0.00000000       0.00000000       0.00000000      -0.00297352       0.00014841       0.11350391
Pd      10.68756280      10.81168006       6.11657659  F       0.00000000       0.00000000       0.00000000      -0.01409307      -0.00540638      -0.02991397
Pd       9.16077776       8.10875607       4.56559406  F       0.00000000       0.00000000       0.00000000      -0.00271702       0.00081752       0.11936895
Pd       1.52678677       0.00000067       6.11658292  F       0.00000000       0.00000000       0.00000000      -0.00956730      -0.00661063      -0.03953439
Pd       9.18077204       8.10765934       7.65017228  T       0.00000000       0.00000000       0.00000000      -0.00100362       0.00668538      -0.00297567
Pd       9.17673574       2.70182014       7.64699424  T       0.00000000       0.00000000       0.00000000       0.01295498      -0.00064279      -0.00996099
Pd      10.73947433      -0.00835158       9.13002281  T       0.00000000       0.00000000       0.00000000      -0.01483787       0.00949314       0.00628533
Pd       0.00000135       2.70292705       4.56560641  F       0.00000000       0.00000000       0.00000000      -0.00386916       0.00067692       0.10208693
Pd       1.58482054      10.80292675       9.13454405  T       0.00000000       0.00000000       0.00000000      -0.02204505      -0.00325789      -0.01229257
Pd       9.20547051       2.69154532      10.75043113  T       0.00000000       0.00000000       0.00000000       0.02411306      -0.01706469      -0.02378711
Pd       6.17339418       8.17014408      10.77469441  T       0.00000000       0.00000000       0.00000000      -0.00091892      -0.00332455      -0.00631234
Pd      10.76095437      10.80748692      12.00859064  T       0.00000000       0.00000000       0.00000000      -0.01486396      -0.01943530       0.01262353
Pd       0.03002741       2.70075522       7.64251198  T       0.00000000       0.00000000       0.00000000      -0.02540534      -0.00429037       0.00633698
Pd      10.68757280       5.40584816       6.11657764  F       0.00000000       0.00000000       0.00000000      -0.01161102      -0.00080853      -0.03264952
Pd       9.16077813       8.10876919       1.50000000  F       0.00000000       0.00000000       0.00000000       0.00010778      -0.00004203      -0.90415377
Pd      10.68757448       5.40584612       3.02679635  F       0.00000000       0.00000000       0.00000000      -0.00172824       0.00004602       0.04756279
Pd      12.27775956       2.68751328      10.74295465  T       0.00000000       0.00000000       0.00000000      -0.01026852      -0.00517334      -0.00689393
Pd       4.63395348      -0.00003844       9.14990212  T       0.00000000       0.00000000       0.00000000      -0.00687680      -0.00654633      -0.01622878
Pd       7.63397856       5.40585179       6.11657833  F       0.00000000       0.00000000       0.00000000      -0.00992984      -0.00229268      -0.05065258
Pd       7.67507368       5.41226355       9.14457888  T       0.00000000       0.00000000       0.00000000      -0.02326432       0.00575598       0.00872192
Pd       4.58435409       5.37648020      12.09833042  T       0.00000000       0.00000000       0.00000000       0.00153750      -0.00142029      -0.01337502
Pd       3.10787549       8.10280639      10.77602539  T       0.00000000       0.00000000       0.00000000      -0.00255642      -0.00815521      -0.00996240
Pd       4.58038906       0.00000000       3.02679635  F       0.00000000       0.00000000       0.00000000      -0.00111001      -0.00038180       0.04910128
Pd       4.62515331       5.41156259       9.15734615  T       0.00000000       0.00000000       0.00000000       0.00363066       0.00831259      -0.00759208
Pd       3.08422441       8.10617468       7.65287750  T       0.00000000       0.00000000       0.00000000      -0.01071534       0.00617338       0.01473708
Pd       3.05359494       2.70292824       4.56560681  F       0.00000000       0.00000000       0.00000000      -0.00315128      -0.00060092       0.11797942
Pd       3.05359271       2.70292306       1.50000000  F       0.00000000       0.00000000       0.00000000      -0.00021660       0.00013310      -0.90374430
Pd       4.58039501       5.40584640       6.11658908  F       0.00000000       0.00000000       0.00000000      -0.00765523      -0.00069156      -0.05130518
Pd       4.58040505      10.81168838       6.11658203  F       0.00000000       0.00000000       0.00000000      -0.00815127      -0.00501535      -0.04523944
Pd       4.58038906       5.40584612       3.02679635  F       0.00000000       0.00000000       0.00000000      -0.00151294      -0.00008511       0.05058369
Pd       3.05359271       8.10876919       1.50000000  F       0.00000000       0.00000000       0.00000000      -0.00021984      -0.00012248      -0.90370384
Pd       3.07972870       2.70355261       7.64870217  T       0.00000000       0.00000000       0.00000000       0.01381446       0.01130549      -0.00385077
Pd       4.63353376       0.03223475      12.02901468  T       0.00000000       0.00000000       0.00000000      -0.00844489       0.01473871       0.01006637
Pd       3.10271086       2.69482590      10.75419497  T       0.00000000       0.00000000       0.00000000       0.01172978       0.01149047      -0.02204565
Pd       3.05359569       8.10876742       4.56559865  F       0.00000000       0.00000000       0.00000000      -0.00389685       0.00118116       0.12477690
Pd       6.10718542       2.70292306       1.50000000  F       0.00000000       0.00000000       0.00000000       0.00005364       0.00021214      -0.90320789
Pd       7.63398177       0.00000000       3.02679635  F       0.00000000       0.00000000       0.00000000      -0.00199029      -0.00027807       0.04869386
Pd       1.56997303       5.38858807      12.00384746  T       0.00000000       0.00000000       0.00000000       0.00268978      -0.00325412       0.03116317
Pd       6.12996678       8.10102994       7.65328832  T       0.00000000       0.00000000       0.00000000      -0.00217235      -0.00924777       0.01624669
Pd       0.00000079       8.10876600       4.56559869  F       0.00000000       0.00000000       0.00000000      -0.00366543       0.00078501       0.10970525
Pd       6.10718651       8.10875952       4.56558968  F       0.00000000       0.00000000       0.00000000      -0.00406314       0.00478734       0.12230446
Pd       1.52680247       5.40584247       6.11658534  F       0.00000000       0.00000000       0.00000000      -0.01181077       0.00047162      -0.04191254
Pd       7.63398177       5.40584612       3.02679635  F       0.00000000       0.00000000       0.00000000      -0.00108332      -0.00020499       0.04910162
Pd       6.10718542       8.10876919       1.50000000  F       0.00000000       0.00000000       0.00000000       0.00003681      -0.00011152      -0.90351822
Pd       0.03001084       8.10747295       7.64613325  T       0.00000000       0.00000000       0.00000000      -0.03425916      -0.00870777       0.01675006
Pd       7.70934651      10.83346487      12.03384688  T       0.00000000       0.00000000       0.00000000      -0.02514977       0.01324290       0.00837179
Pd       6.16140315       2.72301219      10.78148415  T       0.00000000       0.00000000       0.00000000      -0.01109521      -0.00452530      -0.00998754
Pd       1.57262187       5.40308484       9.13638167  T       0.00000000       0.00000000       0.00000000       0.00682277       0.00067963      -0.00365726
Pd       7.68236076      -0.00110177       9.14501485  T       0.00000000       0.00000000       0.00000000       0.00618811      -0.00856818      -0.01639453
Pd       6.12664169       2.70347952       7.65569134  T       0.00000000       0.00000000       0.00000000       0.01709250       0.02501993       0.00912769
Pd      12.27148263       8.09889764      10.75418460  T       0.00000000       0.00000000       0.00000000      -0.02084984       0.00688623       0.00486849
Pd       7.63399583      10.81167532       6.11657540  F       0.00000000       0.00000000       0.00000000      -0.01179537      -0.00435476      -0.04541638
Pd       6.10718592       2.70292523       4.56558724  F       0.00000000       0.00000000       0.00000000      -0.00343577      -0.00042246       0.13626873
Pd       1.52679635       5.40584612       3.02679635  F       0.00000000       0.00000000       0.00000000      -0.00141083       0.00001184       0.04783796
Pd       0.00000000       2.70292306       1.50000000  F       0.00000000       0.00000000       0.00000000      -0.00010857       0.00005485      -0.90451182
C        6.20164838       7.26855544      13.74007737  T       0.00000000       0.00000000       0.00000000       0.00545585      -0.01027743      -0.02219146
O        5.28673970       7.09629264      14.51898329  T       0.00000000       0.00000000       0.00000000      -0.01656588       0.02751947       0.02415456
O        7.40414706       7.80542140      13.94436918  T       0.00000000       0.00000000       0.00000000       0.00478643       0.01752969       0.01155146
C        7.68506037       8.37748854      15.24918446  T       0.00000000       0.00000000       0.00000000      -0.01386286       0.00744634       0.01601600
H        7.39261252       7.67683185      16.04460676  T       0.00000000       0.00000000       0.00000000       0.00577933      -0.02478137       0.00133407
H        8.76813356       8.54774569      15.23625965  T       0.00000000       0.00000000       0.00000000      -0.00544188       0.02383724       0.01064574
H        7.13616715       9.32492471      15.36269141  T       0.00000000       0.00000000       0.00000000      -0.00119412       0.01887690      -0.02644700
