135
Lattice="12.21437083684855 0.0 7e-16 1.7e-15 10.811692246786171 7e-16 0.0 0.0 30.687574482242482" Properties=species:S:1:pos:R:3:move_mask:L:1:momenta:R:3:forces:R:3 idx=7071 E_MACE=-713.2089425723705 d_min=1.9988200258572084 d_reactive=3.6160904197695176 rank=4139 dE_rel_meV=2920.9128157041278 converged=T energy=-713.2089425723705 stress="-0.0001689295947359601 -7.977314247878075e-06 6.106973284839126e-05 -7.977314247878075e-06 -0.0012271460582333558 -0.0002401286377097182 6.106973284839126e-05 -0.0002401286377097182 -0.003733382202814531" pbc="T T T"
O        3.06767285       6.70477856      12.16261885  T       0.00000000       0.00000000       0.00000000       0.00026011      -0.00446401      -0.00704021
O        6.11103726       1.29381738      12.16589538  T       0.00000000       0.00000000       0.00000000      -0.01027734       0.01342677      -0.01544295
O        6.11916793       4.08899693      12.16152677  T       0.00000000       0.00000000       0.00000000      -0.01259740      -0.01578084      -0.00243116
O        6.10056349       1.34836918       9.16398906  T       0.00000000       0.00000000       0.00000000      -0.00013950      -0.00905617      -0.01114440
O        6.10808154       4.04524663       9.16897715  T       0.00000000       0.00000000       0.00000000      -0.01794868      -0.00046984      -0.00500137
O        6.10718343       1.35539432       6.10801899  F       0.00000000       0.00000000       0.00000000      -0.00785541       0.00623639       0.06208249
O        6.10718534       4.05045008       6.10801162  F       0.00000000       0.00000000       0.00000000       0.00081938      -0.01338274       0.07837481
O        6.10718542       1.35146153       3.02679635  F       0.00000000       0.00000000       0.00000000      -0.00007308      -0.47129663       0.31466157
O        6.10718542       4.05438459       3.02679635  F       0.00000000       0.00000000       0.00000000       0.00001817       0.47126209       0.31409577
O        9.16009994       9.49020017      12.17602675  T       0.00000000       0.00000000       0.00000000       0.00010335       0.00498953      -0.01276357
O        3.05662407       9.49672712      12.16356869  T       0.00000000       0.00000000       0.00000000      -0.00187670      -0.01547383      -0.00052665
O        3.05293252       6.75273067       9.16062630  T       0.00000000       0.00000000       0.00000000       0.00623209       0.00678652       0.01623708
O        3.04745431       9.45021424       9.16623619  T       0.00000000       0.00000000       0.00000000       0.00594710       0.00057306      -0.00239461
O        3.05359341       6.76124998       6.10801980  F       0.00000000       0.00000000       0.00000000      -0.00266892      -0.00419596       0.04978212
O        3.05359360       9.45629444       6.10802097  F       0.00000000       0.00000000       0.00000000      -0.00561117      -0.01196566       0.07052243
O        3.05359271       6.75730765       3.02679635  F       0.00000000       0.00000000       0.00000000       0.00001732      -0.47137467       0.31500952
O        3.05359271       9.46023072       3.02679635  F       0.00000000       0.00000000       0.00000000       0.00001341       0.47144542       0.31473778
O        3.05206713       1.29294931      12.16479114  T       0.00000000       0.00000000       0.00000000       0.00378625       0.01497520      -0.02380099
O        6.10718542       9.46023072       3.02679635  F       0.00000000       0.00000000       0.00000000      -0.00003220       0.47158164       0.31395063
O        6.10718542       6.75730765       3.02679635  F       0.00000000       0.00000000       0.00000000       0.00006957      -0.47154907       0.31416406
O        6.10718028       9.45628983       6.10801454  F       0.00000000       0.00000000       0.00000000      -0.00245111      -0.01910729       0.08136437
O        6.10718760       6.76124043       6.10802244  F       0.00000000       0.00000000       0.00000000       0.00548429       0.00618509       0.06394383
O        9.15994075       6.75088277       9.18623697  T       0.00000000       0.00000000       0.00000000       0.00726346       0.00587832      -0.02506614
O        9.14981765       9.44575682       9.17386068  T       0.00000000       0.00000000       0.00000000       0.01655765       0.02074756      -0.00647919
O        9.16078073       6.76123572       6.10801818  F       0.00000000       0.00000000       0.00000000       0.01165684      -0.00116292       0.08455965
O        9.16078059       9.45627785       6.10801483  F       0.00000000       0.00000000       0.00000000      -0.00289805      -0.04927864       0.11096628
O        9.16077813       6.75730765       3.02679635  F       0.00000000       0.00000000       0.00000000       0.00030878      -0.47131403       0.31275083
O        9.16077813       9.46023072       3.02679635  F       0.00000000       0.00000000       0.00000000      -0.00019555       0.47098842       0.31369187
O        9.16348475       1.28711258      12.16080111  T       0.00000000       0.00000000       0.00000000       0.00563726       0.01375454       0.01206313
O        9.14621276       4.06223482      12.16219763  T       0.00000000       0.00000000       0.00000000       0.02164361      -0.00632854      -0.01087724
O        3.07033339       4.09134946      12.15660100  T       0.00000000       0.00000000       0.00000000       0.01041165      -0.01033520       0.00630289
O        9.15338307       1.34365899       9.15607648  T       0.00000000       0.00000000       0.00000000       0.00083150      -0.00594714       0.01527773
O        9.16077827       1.35539012       6.10801450  F       0.00000000       0.00000000       0.00000000      -0.00419284       0.01481392       0.06232333
O        9.16078421       4.05045012       6.10800209  F       0.00000000       0.00000000       0.00000000       0.00259401       0.00097055       0.08616329
O        9.16077813       1.35146153       3.02679635  F       0.00000000       0.00000000       0.00000000      -0.00019819      -0.47074558       0.31600882
O        9.16077813       4.05438459       3.02679635  F       0.00000000       0.00000000       0.00000000       0.00025935       0.47092152       0.31422195
O        6.12344549       6.70491364      12.17068404  T       0.00000000       0.00000000       0.00000000       0.00122605       0.00904998      -0.01256593
O        6.10730010       9.49722251      12.17004629  T       0.00000000       0.00000000       0.00000000      -0.00500671      -0.01524764      -0.00180756
O        6.10793211       6.75553618       9.16578987  T       0.00000000       0.00000000       0.00000000      -0.00475855      -0.00240525       0.00677753
O        6.10117036       9.44923968       9.17118139  T       0.00000000       0.00000000       0.00000000      -0.00500351       0.00328474      -0.00678650
O        9.15554093       4.04395188       9.18019448  T       0.00000000       0.00000000       0.00000000       0.00281853      -0.01117942       0.00660901
O        3.04551972       1.34587297       9.16198830  T       0.00000000       0.00000000       0.00000000       0.01410317       0.00104487      -0.01246430
O        9.16619775       6.69845831      12.16846445  T       0.00000000       0.00000000       0.00000000      -0.01453016       0.02661508       0.00198756
O       12.21753338       9.48991354      12.16029072  T       0.00000000       0.00000000       0.00000000      -0.00124141      -0.01386540      -0.00811262
O        0.00000000       6.75730765       3.02679635  F       0.00000000       0.00000000       0.00000000      -0.00059711      -0.47129729       0.31405065
O        3.05535353       4.04409455       9.16663030  T       0.00000000       0.00000000       0.00000000       0.01002258      -0.00148613      -0.00185340
O        0.00001198       1.28682576      12.14812064  T       0.00000000       0.00000000       0.00000000      -0.00452426       0.01353579       0.02131584
O        0.00000951       9.45630243       6.10801529  F       0.00000000       0.00000000       0.00000000      -0.01206683      -0.03931903       0.09520097
O       12.25951190       4.06310813      12.13427250  T       0.00000000       0.00000000       0.00000000      -0.02910334       0.02324345       0.01313040
O        0.00000182       6.76124509       6.10800952  F       0.00000000       0.00000000       0.00000000      -0.01238974      -0.02620397       0.05640498
O       -0.00784429       9.44739815       9.16454913  T       0.00000000       0.00000000       0.00000000      -0.00337395       0.01250871       0.00486039
O       -0.00954495       1.33817563       9.14622767  T       0.00000000       0.00000000       0.00000000       0.00089734       0.00198034       0.02532953
O       -0.00120531       6.74661391       9.17519974  T       0.00000000       0.00000000       0.00000000      -0.00181725       0.00176107      -0.00506238
O       12.21522324       4.04286209       9.16936354  T       0.00000000       0.00000000       0.00000000       0.00442216       0.00138265       0.01804255
O       12.23860040       6.69558052      12.14601862  T       0.00000000       0.00000000       0.00000000       0.01011333       0.02756654       0.01203904
O        0.00000448       1.35539672       6.10801283  F       0.00000000       0.00000000       0.00000000      -0.01107494      -0.01040784       0.03089177
O        0.00000331       4.05045002       6.10801189  F       0.00000000       0.00000000       0.00000000      -0.00732080       0.01609240       0.06412259
O        3.05359271       4.05438459       3.02679635  F       0.00000000       0.00000000       0.00000000       0.00006630       0.47119178       0.31447325
O        0.00000000       9.46023072       3.02679635  F       0.00000000       0.00000000       0.00000000      -0.00023455       0.47080727       0.31498908
O        3.05359105       4.05044320       6.10802763  F       0.00000000       0.00000000       0.00000000       0.00369767      -0.01213419       0.07587875
O        3.05359271       1.35146153       3.02679635  F       0.00000000       0.00000000       0.00000000       0.00003500      -0.47110412       0.31521017
O        3.05359652       1.35540103       6.10801944  F       0.00000000       0.00000000       0.00000000      -0.00288036       0.00257112       0.05643435
O        0.00000000       4.05438459       3.02679635  F       0.00000000       0.00000000       0.00000000      -0.00054010       0.47082155       0.31564040
O        0.00000000       1.35146153       3.02679635  F       0.00000000       0.00000000       0.00000000      -0.00019597      -0.47073035       0.31752368
Pd       7.64486561       5.39277960      12.01704161  T       0.00000000       0.00000000       0.00000000      -0.01505279       0.00619530      -0.01233777
Pd      10.70205148       5.36948664      12.10350831  T       0.00000000       0.00000000       0.00000000       0.00372331       0.01706543       0.03740190
Pd       0.00000000       8.10876919       1.50000000  F       0.00000000       0.00000000       0.00000000       0.00017779      -0.00022779      -0.90368628
Pd       9.16188772       8.09704122      10.77018220  T       0.00000000       0.00000000       0.00000000      -0.00311736      -0.01126440      -0.00744340
Pd       1.52679635       0.00000000       3.02679635  F       0.00000000       0.00000000       0.00000000       0.00016660      -0.00030487       0.04843159
Pd       9.16077813       2.70292306       1.50000000  F       0.00000000       0.00000000       0.00000000      -0.00001494       0.00044608      -0.90364139
Pd      10.68757448       0.00000000       3.02679635  F       0.00000000       0.00000000       0.00000000       0.00004625      -0.00036709       0.04859238
Pd      10.68546529       5.39560139       9.18962310  T       0.00000000       0.00000000       0.00000000      -0.00382689      -0.00296115      -0.00122782
Pd       1.52773842      -0.01509385      12.01331296  T       0.00000000       0.00000000       0.00000000       0.01159825      -0.00397400      -0.01528427
Pd       9.16077900       2.70292450       4.56559698  F       0.00000000       0.00000000       0.00000000       0.00094540       0.00114225       0.11002956
Pd      10.68756280      10.81168006       6.11657659  F       0.00000000       0.00000000       0.00000000      -0.00192447      -0.01399768      -0.04022766
Pd       9.16077776       8.10875607       4.56559406  F       0.00000000       0.00000000       0.00000000       0.00103812       0.00229823       0.12307728
Pd       1.52678677       0.00000067       6.11658292  F       0.00000000       0.00000000       0.00000000       0.00603868      -0.00962535      -0.03116009
Pd       9.16227275       8.10232725       7.65349498  T       0.00000000       0.00000000       0.00000000      -0.00588400      -0.01346823       0.01936180
Pd       9.15960741       2.70183354       7.64794473  T       0.00000000       0.00000000       0.00000000       0.00865397       0.01170154       0.00943015
Pd      10.67662479      -0.01301029       9.13443449  T       0.00000000       0.00000000       0.00000000       0.01506532      -0.00283013      -0.00626433
Pd       0.00000135       2.70292705       4.56560641  F       0.00000000       0.00000000       0.00000000      -0.00041007       0.00205451       0.09651855
Pd       1.51895704      10.80144624       9.13197228  T       0.00000000       0.00000000       0.00000000       0.01654473      -0.00676200      -0.00870582
Pd       9.15326517       2.67956376      10.75305058  T       0.00000000       0.00000000       0.00000000       0.00827776       0.00747796      -0.00540284
Pd       6.11123750       8.10015658      10.76621220  T       0.00000000       0.00000000       0.00000000      -0.00643054       0.01740243       0.01565136
Pd      10.68783382      10.79076302      12.01263727  T       0.00000000       0.00000000       0.00000000       0.00174284       0.00926551       0.00201737
Pd      -0.00635973       2.70026580       7.64252607  T       0.00000000       0.00000000       0.00000000       0.00006087       0.01214473       0.02097153
Pd      10.68757280       5.40584816       6.11657764  F       0.00000000       0.00000000       0.00000000      -0.00228167      -0.00269691      -0.06781680
Pd       9.16077813       8.10876919       1.50000000  F       0.00000000       0.00000000       0.00000000      -0.00007949      -0.00027639      -0.90344982
Pd      10.68757448       5.40584612       3.02679635  F       0.00000000       0.00000000       0.00000000      -0.00003986       0.00000789       0.04306874
Pd      12.22490731       2.67608721      10.73712106  T       0.00000000       0.00000000       0.00000000      -0.00248625       0.00103685      -0.00368684
Pd       4.57331183      -0.00769776       9.13921774  T       0.00000000       0.00000000       0.00000000       0.00756671       0.00851503      -0.01497433
Pd       7.63397856       5.40585179       6.11657833  F       0.00000000       0.00000000       0.00000000      -0.00016110      -0.00259422      -0.04395858
Pd       7.63097823       5.40034780       9.14608381  T       0.00000000       0.00000000       0.00000000       0.01423040      -0.00923705      -0.00172867
Pd       4.59703790       5.39929605      12.01642325  T       0.00000000       0.00000000       0.00000000      -0.01832252      -0.00299729       0.00118706
Pd       3.05598657       8.10063239      10.75828842  T       0.00000000       0.00000000       0.00000000       0.00322502       0.00118876       0.03406195
Pd       4.58038906       0.00000000       3.02679635  F       0.00000000       0.00000000       0.00000000       0.00031187      -0.00019708       0.04861411
Pd       4.58127440       5.40023285       9.13627405  T       0.00000000       0.00000000       0.00000000      -0.00007185      -0.00564072       0.00596193
Pd       3.05126164       8.10575020       7.64707326  T       0.00000000       0.00000000       0.00000000       0.00684789       0.00255948       0.01984672
Pd       3.05359494       2.70292824       4.56560681  F       0.00000000       0.00000000       0.00000000       0.00041290       0.00110410       0.11536679
Pd       3.05359271       2.70292306       1.50000000  F       0.00000000       0.00000000       0.00000000      -0.00010502       0.00008954      -0.90418978
Pd       4.58039501       5.40584640       6.11658908  F       0.00000000       0.00000000       0.00000000       0.00079136      -0.00393965      -0.03642328
Pd       4.58040505      10.81168838       6.11658203  F       0.00000000       0.00000000       0.00000000       0.00198686      -0.00575093      -0.03656124
Pd       4.58038906       5.40584612       3.02679635  F       0.00000000       0.00000000       0.00000000       0.00016556      -0.00003201       0.04789491
Pd       3.05359271       8.10876919       1.50000000  F       0.00000000       0.00000000       0.00000000      -0.00001848       0.00005632      -0.90429951
Pd       3.05367650       2.70021916       7.64826372  T       0.00000000       0.00000000       0.00000000      -0.00494407      -0.01113571       0.00734722
Pd       4.58171836      -0.00964230      12.01909696  T       0.00000000       0.00000000       0.00000000       0.00602881       0.00520836      -0.00469612
Pd       3.05619976       2.69014527      10.75859007  T       0.00000000       0.00000000       0.00000000       0.00607763       0.00616003       0.02964795
Pd       3.05359569       8.10876742       4.56559865  F       0.00000000       0.00000000       0.00000000       0.00004214       0.00093294       0.11215745
Pd       6.10718542       2.70292306       1.50000000  F       0.00000000       0.00000000       0.00000000       0.00003947       0.00008662      -0.90410674
Pd       7.63398177       0.00000000       3.02679635  F       0.00000000       0.00000000       0.00000000       0.00043379      -0.00026911       0.04883562
Pd       1.54819801       5.39453506      12.00753986  T       0.00000000       0.00000000       0.00000000      -0.00193977       0.00886394      -0.00895139
Pd       6.10630008       8.10623447       7.64958181  T       0.00000000       0.00000000       0.00000000       0.00016362       0.00308872       0.01230611
Pd       0.00000079       8.10876600       4.56559869  F       0.00000000       0.00000000       0.00000000      -0.00055934       0.00358033       0.11227084
Pd       6.10718651       8.10875952       4.56558968  F       0.00000000       0.00000000       0.00000000       0.00043474       0.00071187       0.11866626
Pd       1.52680247       5.40584247       6.11658534  F       0.00000000       0.00000000       0.00000000       0.00409442      -0.00501195      -0.03798028
Pd       7.63398177       5.40584612       3.02679635  F       0.00000000       0.00000000       0.00000000       0.00013993       0.00001765       0.04841648
Pd       6.10718542       8.10876919       1.50000000  F       0.00000000       0.00000000       0.00000000      -0.00005022       0.00005198      -0.90409874
Pd      -0.00780134       8.10045265       7.64885717  T       0.00000000       0.00000000       0.00000000       0.00651878       0.01495256       0.01662562
Pd       7.63561895      10.79731467      12.02176994  T       0.00000000       0.00000000       0.00000000      -0.00546560      -0.00716442      -0.00870416
Pd       6.11071091       2.69071953      10.76016522  T       0.00000000       0.00000000       0.00000000      -0.00935574       0.00675331       0.02747034
Pd       1.52898847       5.39640577       9.13949852  T       0.00000000       0.00000000       0.00000000      -0.00086113       0.00471767      -0.00344871
Pd       7.62503688      -0.00787680       9.13814123  T       0.00000000       0.00000000       0.00000000       0.00452839      -0.01362954      -0.00459096
Pd       6.10363290       2.70081564       7.64893739  T       0.00000000       0.00000000       0.00000000       0.01364882      -0.00479327       0.00621127
Pd      12.21699836       8.09474277      10.75400864  T       0.00000000       0.00000000       0.00000000      -0.00227907       0.02201721       0.00837287
Pd       7.63399583      10.81167532       6.11657540  F       0.00000000       0.00000000       0.00000000      -0.00098486      -0.00854352      -0.03134959
Pd       6.10718592       2.70292523       4.56558724  F       0.00000000       0.00000000       0.00000000       0.00012134       0.00106400       0.11744713
Pd       1.52679635       5.40584612       3.02679635  F       0.00000000       0.00000000       0.00000000       0.00015145      -0.00001901       0.04775555
Pd       0.00000000       2.70292306       1.50000000  F       0.00000000       0.00000000       0.00000000       0.00012341       0.00047481      -0.90391724
C        7.62054697       6.42876901      15.57124870  T       0.00000000       0.00000000       0.00000000       0.00185626       0.02003857      -0.02562818
O        7.33702465       5.31813889      15.52847984  T       0.00000000       0.00000000       0.00000000      -0.01223114       0.00988269      -0.01249345
O       10.74718295       5.36060470      14.10179902  T       0.00000000       0.00000000       0.00000000      -0.00154063       0.01753303      -0.00479921
C       10.75760732       4.09280238      14.72731743  T       0.00000000       0.00000000       0.00000000       0.00329397      -0.01218924       0.00246832
H       10.91319305       4.33901134      15.79955953  T       0.00000000       0.00000000       0.00000000      -0.01791592      -0.02147642       0.00210219
H        9.80124234       3.54455881      14.61490477  T       0.00000000       0.00000000       0.00000000      -0.01812778      -0.00958516      -0.00667509
H       11.58631313       3.43787779      14.39019123  T       0.00000000       0.00000000       0.00000000       0.01752554       0.01468961      -0.00422409
