135
Lattice="12.21437083684855 0.0 7e-16 1.7e-15 10.811692246786171 7e-16 0.0 0.0 30.687574482242482" Properties=species:S:1:pos:R:3:move_mask:L:1:momenta:R:3:forces:R:3 idx=7812 E_MACE=-712.0396522637334 d_min=2.628975832509455 d_reactive=3.928509343128053 rank=8276 dE_rel_meV=4090.203124341201 converged=T energy=-712.0396522637334 stress="-0.0002684271579509751 -2.0752853613896094e-05 9.460070115662626e-05 -2.0752853613896094e-05 -0.0009704513723883257 4.319088038531321e-05 9.460070115662626e-05 4.319088038531321e-05 -0.0035917108356658687" pbc="T T T"
O        3.07470230       6.70959624      12.19445212  T       0.00000000       0.00000000       0.00000000       0.01009055      -0.00087814      -0.00773865
O        6.14152241       1.30007500      12.13580564  T       0.00000000       0.00000000       0.00000000       0.00624673       0.01007168      -0.00683813
O        6.15684900       4.12582418      12.11261024  T       0.00000000       0.00000000       0.00000000       0.00690354      -0.00546951       0.00139868
O        6.10915997       1.34961878       9.16175307  T       0.00000000       0.00000000       0.00000000      -0.00445516       0.01372204      -0.00712084
O        6.11269941       4.05542790       9.15762484  T       0.00000000       0.00000000       0.00000000      -0.00314081      -0.01009672      -0.00621392
O        6.10718343       1.35539432       6.10801899  F       0.00000000       0.00000000       0.00000000       0.00039920      -0.00332779       0.06046631
O        6.10718534       4.05045008       6.10801162  F       0.00000000       0.00000000       0.00000000       0.00322740      -0.00372210       0.06321443
O        6.10718542       1.35146153       3.02679635  F       0.00000000       0.00000000       0.00000000      -0.00012954      -0.47102038       0.31499167
O        6.10718542       4.05438459       3.02679635  F       0.00000000       0.00000000       0.00000000      -0.00014899       0.47115731       0.31503109
O        9.17227222       9.50544564      12.17841133  T       0.00000000       0.00000000       0.00000000       0.00589144      -0.00864013      -0.00845799
O        3.07113601       9.51192181      12.18545888  T       0.00000000       0.00000000       0.00000000       0.00358719      -0.00505876       0.00558325
O        3.06134845       6.76316667       9.18235814  T       0.00000000       0.00000000       0.00000000      -0.00917941       0.01225217      -0.00901739
O        3.05834183       9.45327796       9.18145843  T       0.00000000       0.00000000       0.00000000      -0.00529742      -0.01068619      -0.00520814
O        3.05359341       6.76124998       6.10801980  F       0.00000000       0.00000000       0.00000000       0.00408044       0.03493485       0.10800279
O        3.05359360       9.45629444       6.10802097  F       0.00000000       0.00000000       0.00000000       0.00126648      -0.03535724       0.10925050
O        3.05359271       6.75730765       3.02679635  F       0.00000000       0.00000000       0.00000000       0.00007051      -0.47157167       0.31191098
O        3.05359271       9.46023072       3.02679635  F       0.00000000       0.00000000       0.00000000       0.00006555       0.47163332       0.31182509
O        3.03715369       1.30660215      12.16188118  T       0.00000000       0.00000000       0.00000000       0.00130023      -0.00632656      -0.01546460
O        6.10718542       9.46023072       3.02679635  F       0.00000000       0.00000000       0.00000000      -0.00008818       0.47157304       0.31297637
O        6.10718542       6.75730765       3.02679635  F       0.00000000       0.00000000       0.00000000      -0.00011837      -0.47163345       0.31314340
O        6.10718028       9.45628983       6.10801454  F       0.00000000       0.00000000       0.00000000      -0.00561542      -0.02270488       0.09037218
O        6.10718760       6.76124043       6.10802244  F       0.00000000       0.00000000       0.00000000      -0.00410221       0.01838555       0.08746864
O        9.16787644       6.76249754       9.16888656  T       0.00000000       0.00000000       0.00000000      -0.00282505       0.01638878       0.00611494
O        9.16532648       9.45582228       9.16861376  T       0.00000000       0.00000000       0.00000000      -0.00351194      -0.00767283       0.00125118
O        9.16078073       6.76123572       6.10801818  F       0.00000000       0.00000000       0.00000000       0.00293878       0.01707796       0.07761508
O        9.16078059       9.45627785       6.10801483  F       0.00000000       0.00000000       0.00000000       0.00023585      -0.01685539       0.07774518
O        9.16077813       6.75730765       3.02679635  F       0.00000000       0.00000000       0.00000000       0.00016343      -0.47163221       0.31374856
O        9.16077813       9.46023072       3.02679635  F       0.00000000       0.00000000       0.00000000       0.00006534       0.47155388       0.31367832
O        9.16882243       1.30882094      12.15567915  T       0.00000000       0.00000000       0.00000000       0.01128488       0.00175533      -0.00106134
O        9.17531966       4.11121888      12.14556768  T       0.00000000       0.00000000       0.00000000       0.00741466      -0.00657160       0.01062821
O        3.03842048       4.11409418      12.15151291  T       0.00000000       0.00000000       0.00000000      -0.00480902      -0.01217208      -0.00986313
O        9.16390475       1.35111422       9.16225683  T       0.00000000       0.00000000       0.00000000      -0.00632809       0.01192379       0.00034253
O        9.16077827       1.35539012       6.10801450  F       0.00000000       0.00000000       0.00000000      -0.00026159       0.00172552       0.06392460
O        9.16078421       4.05045012       6.10800209  F       0.00000000       0.00000000       0.00000000       0.00307402      -0.00668447       0.06484825
O        9.16077813       1.35146153       3.02679635  F       0.00000000       0.00000000       0.00000000       0.00011409      -0.47094899       0.31506604
O        9.16077813       4.05438459       3.02679635  F       0.00000000       0.00000000       0.00000000       0.00020227       0.47108619       0.31515959
O        6.11226103       6.71391473      12.17625643  T       0.00000000       0.00000000       0.00000000      -0.00465704      -0.00174785       0.00333024
O        6.10833524       9.51566326      12.16981002  T       0.00000000       0.00000000       0.00000000       0.00261506      -0.00071308       0.00535096
O        6.10741720       6.76140515       9.17363631  T       0.00000000       0.00000000       0.00000000       0.01045844       0.01019881      -0.00396881
O        6.10510064       9.45526003       9.17293836  T       0.00000000       0.00000000       0.00000000       0.01120832      -0.00119107      -0.00805502
O        9.16747058       4.05567809       9.15876589  T       0.00000000       0.00000000       0.00000000      -0.01074111      -0.01180986       0.00589297
O        3.05485608       1.35244769       9.17148099  T       0.00000000       0.00000000       0.00000000       0.01102598       0.01879532      -0.00611978
O        9.18112557       6.72462703      12.18432433  T       0.00000000       0.00000000       0.00000000       0.01234613       0.01023428      -0.01549950
O       12.21224418       9.50248546      12.18434873  T       0.00000000       0.00000000       0.00000000       0.00782460      -0.01122952      -0.00532312
O        0.00000000       6.75730765       3.02679635  F       0.00000000       0.00000000       0.00000000       0.00022666      -0.47155480       0.31299733
O        3.05771449       4.05148869       9.17038416  T       0.00000000       0.00000000       0.00000000       0.00551003      -0.01567246      -0.01677768
O        0.00535345       1.30814510      12.14436972  T       0.00000000       0.00000000       0.00000000       0.00386933      -0.00632348      -0.00571591
O        0.00000951       9.45630243       6.10801529  F       0.00000000       0.00000000       0.00000000       0.00493802      -0.02353507       0.09008149
O       12.22556178       4.10681758      12.15170359  T       0.00000000       0.00000000       0.00000000      -0.00505099      -0.00285811       0.00267525
O        0.00000182       6.76124509       6.10800952  F       0.00000000       0.00000000       0.00000000       0.00738154       0.02435418       0.09150934
O        0.00282481       9.45632399       9.17239032  T       0.00000000       0.00000000       0.00000000      -0.00258323      -0.01605164       0.00142543
O        0.00296565       1.35102719       9.16206997  T       0.00000000       0.00000000       0.00000000       0.01118906       0.01426661       0.00412347
O        0.00586347       6.76324586       9.17447780  T       0.00000000       0.00000000       0.00000000      -0.00115037       0.01908577      -0.00455314
O       12.21924650       4.05482775       9.16263281  T       0.00000000       0.00000000       0.00000000       0.01165177      -0.00755328      -0.00689383
O       12.22152368       6.72156934      12.18766192  T       0.00000000       0.00000000       0.00000000      -0.01050357       0.01692317      -0.01814044
O        0.00000448       1.35539672       6.10801283  F       0.00000000       0.00000000       0.00000000       0.00515045       0.00483323       0.06761983
O        0.00000331       4.05045002       6.10801189  F       0.00000000       0.00000000       0.00000000       0.00667748      -0.00575535       0.06893643
O        3.05359271       4.05438459       3.02679635  F       0.00000000       0.00000000       0.00000000       0.00012166       0.47113961       0.31376067
O        0.00000000       9.46023072       3.02679635  F       0.00000000       0.00000000       0.00000000       0.00020599       0.47161115       0.31302001
O        3.05359105       4.05044320       6.10802763  F       0.00000000       0.00000000       0.00000000       0.00103929      -0.02331068       0.09055127
O        3.05359271       1.35146153       3.02679635  F       0.00000000       0.00000000       0.00000000       0.00010517      -0.47105337       0.31377452
O        3.05359652       1.35540103       6.10801944  F       0.00000000       0.00000000       0.00000000      -0.00150862       0.01780502       0.08687149
O        0.00000000       4.05438459       3.02679635  F       0.00000000       0.00000000       0.00000000       0.00014821       0.47098640       0.31499379
O        0.00000000       1.35146153       3.02679635  F       0.00000000       0.00000000       0.00000000       0.00014421      -0.47091638       0.31501627
Pd       7.65684580       5.42718049      12.00548782  T       0.00000000       0.00000000       0.00000000      -0.01136748      -0.00996976      -0.00775261
Pd      10.70196147       5.41566906      12.02235827  T       0.00000000       0.00000000       0.00000000      -0.00187193      -0.00041599      -0.00933987
Pd       0.00000000       8.10876919       1.50000000  F       0.00000000       0.00000000       0.00000000      -0.00009507       0.00000543      -0.90383307
Pd       9.17807804       8.11170710      10.77135365  T       0.00000000       0.00000000       0.00000000      -0.01124401      -0.00134315       0.00592399
Pd       1.52679635       0.00000000       3.02679635  F       0.00000000       0.00000000       0.00000000       0.00003398      -0.00017220       0.04908281
Pd       9.16077813       2.70292306       1.50000000  F       0.00000000       0.00000000       0.00000000      -0.00001262      -0.00003715      -0.90430754
Pd      10.68757448       0.00000000       3.02679635  F       0.00000000       0.00000000       0.00000000       0.00007222      -0.00028399       0.04843254
Pd      10.69393359       5.40964424       9.13502476  T       0.00000000       0.00000000       0.00000000      -0.00013616      -0.00011296       0.00640040
Pd       1.53068655      -0.00740591      12.02093445  T       0.00000000       0.00000000       0.00000000      -0.00504152       0.02207816      -0.01448400
Pd       9.16077900       2.70292450       4.56559698  F       0.00000000       0.00000000       0.00000000      -0.00016822      -0.00002403       0.11454327
Pd      10.68756280      10.81168006       6.11657659  F       0.00000000       0.00000000       0.00000000      -0.00085781      -0.00593206      -0.03580838
Pd       9.16077776       8.10875607       4.56559406  F       0.00000000       0.00000000       0.00000000      -0.00079728       0.00012492       0.12334947
Pd       1.52678677       0.00000067       6.11658292  F       0.00000000       0.00000000       0.00000000       0.00161445      -0.00566077      -0.03961629
Pd       9.16351932       8.10877089       7.65124233  T       0.00000000       0.00000000       0.00000000       0.00118965       0.00278672      -0.00272878
Pd       9.16294798       2.70250026       7.64725932  T       0.00000000       0.00000000       0.00000000       0.00501713       0.00077329      -0.00140690
Pd      10.69050583      -0.00229131       9.13511060  T       0.00000000       0.00000000       0.00000000       0.00185638       0.00292086       0.00325743
Pd       0.00000135       2.70292705       4.56560641  F       0.00000000       0.00000000       0.00000000      -0.00046346      -0.00007987       0.11393853
Pd       1.52991004      10.80782367       9.14591817  T       0.00000000       0.00000000       0.00000000       0.00770731       0.00017292      -0.01494616
Pd       9.17168293       2.70569576      10.75199732  T       0.00000000       0.00000000       0.00000000       0.00187032      -0.00273398       0.00724655
Pd       6.10219002       8.11077979      10.77173380  T       0.00000000       0.00000000       0.00000000      -0.01270353      -0.00152822       0.01181270
Pd      10.69469205      10.81170992      12.02505508  T       0.00000000       0.00000000       0.00000000      -0.00430696       0.00341910      -0.01358287
Pd       0.00341461       2.70288903       7.64738441  T       0.00000000       0.00000000       0.00000000      -0.00351096       0.00155783      -0.00364444
Pd      10.68757280       5.40584816       6.11657764  F       0.00000000       0.00000000       0.00000000      -0.00065707       0.00576307      -0.03564468
Pd       9.16077813       8.10876919       1.50000000  F       0.00000000       0.00000000       0.00000000       0.00000448       0.00003284      -0.90418868
Pd      10.68757448       5.40584612       3.02679635  F       0.00000000       0.00000000       0.00000000      -0.00003438       0.00022363       0.04847780
Pd      12.21842980       2.70678336      10.75108025  T       0.00000000       0.00000000       0.00000000      -0.00139281       0.00823072      -0.00036275
Pd       4.58091118      -0.00187644       9.14370550  T       0.00000000       0.00000000       0.00000000       0.00167910      -0.00082701      -0.01099749
Pd       7.63397856       5.40585179       6.11657833  F       0.00000000       0.00000000       0.00000000       0.00010925       0.00522768      -0.03518290
Pd       7.63953010       5.41060143       9.13302798  T       0.00000000       0.00000000       0.00000000      -0.00358110       0.00211107       0.00112783
Pd       4.59425801       5.39079270      12.03943932  T       0.00000000       0.00000000       0.00000000      -0.00686597       0.01122685      -0.00256516
Pd       3.07319256       8.10732253      10.78504176  T       0.00000000       0.00000000       0.00000000       0.00766693       0.00739419       0.01190221
Pd       4.58038906       0.00000000       3.02679635  F       0.00000000       0.00000000       0.00000000      -0.00029111      -0.00036508       0.04919520
Pd       4.58384031       5.40665457       9.14211214  T       0.00000000       0.00000000       0.00000000       0.00047280       0.00360191      -0.01041003
Pd       3.05718644       8.10861396       7.65723640  T       0.00000000       0.00000000       0.00000000      -0.00482043      -0.00344615      -0.00091452
Pd       3.05359494       2.70292824       4.56560681  F       0.00000000       0.00000000       0.00000000      -0.00088540       0.00027711       0.12574025
Pd       3.05359271       2.70292306       1.50000000  F       0.00000000       0.00000000       0.00000000       0.00000831      -0.00002186      -0.90367826
Pd       4.58039501       5.40584640       6.11658908  F       0.00000000       0.00000000       0.00000000      -0.00474999       0.00521175      -0.03739318
Pd       4.58040505      10.81168838       6.11658203  F       0.00000000       0.00000000       0.00000000      -0.00383867      -0.00678898      -0.03741669
Pd       4.58038906       5.40584612       3.02679635  F       0.00000000       0.00000000       0.00000000      -0.00028006       0.00025260       0.04949454
Pd       3.05359271       8.10876919       1.50000000  F       0.00000000       0.00000000       0.00000000      -0.00000038       0.00001757      -0.90353275
Pd       3.05418365       2.70226272       7.65176844  T       0.00000000       0.00000000       0.00000000       0.00173054       0.00277191      -0.00799044
Pd       4.58655995       0.02370152      12.03844798  T       0.00000000       0.00000000       0.00000000      -0.00310819      -0.00492683      -0.00471976
Pd       3.05451412       2.70473042      10.76779342  T       0.00000000       0.00000000       0.00000000      -0.00778328       0.00881929       0.00096473
Pd       3.05359569       8.10876742       4.56559865  F       0.00000000       0.00000000       0.00000000      -0.00060316      -0.00018743       0.13771399
Pd       6.10718542       2.70292306       1.50000000  F       0.00000000       0.00000000       0.00000000       0.00006107      -0.00003738      -0.90411398
Pd       7.63398177       0.00000000       3.02679635  F       0.00000000       0.00000000       0.00000000      -0.00014584      -0.00019596       0.04820683
Pd       1.53466898       5.41967233      12.02347761  T       0.00000000       0.00000000       0.00000000       0.00595715      -0.00290791      -0.01508706
Pd       6.10407849       8.10809729       7.65311457  T       0.00000000       0.00000000       0.00000000       0.00963456       0.00471982      -0.00031841
Pd       0.00000079       8.10876600       4.56559869  F       0.00000000       0.00000000       0.00000000       0.00033099      -0.00036973       0.12918228
Pd       6.10718651       8.10875952       4.56558968  F       0.00000000       0.00000000       0.00000000      -0.00003523       0.00058891       0.12830097
Pd       1.52680247       5.40584247       6.11658534  F       0.00000000       0.00000000       0.00000000       0.00073621       0.00539384      -0.03545871
Pd       7.63398177       5.40584612       3.02679635  F       0.00000000       0.00000000       0.00000000      -0.00021113       0.00007611       0.04804708
Pd       6.10718542       8.10876919       1.50000000  F       0.00000000       0.00000000       0.00000000       0.00009429       0.00004213      -0.90393426
Pd       0.00336528       8.10906091       7.65358998  T       0.00000000       0.00000000       0.00000000       0.00187573      -0.00172363      -0.00575104
Pd       7.64760168      10.80804156      12.01047589  T       0.00000000       0.00000000       0.00000000      -0.00959364      -0.00375750      -0.00893048
Pd       6.12457076       2.70493577      10.74630788  T       0.00000000       0.00000000       0.00000000       0.00825127      -0.00121525       0.01128834
Pd       1.53242684       5.40954687       9.14460067  T       0.00000000       0.00000000       0.00000000       0.00828601      -0.00235775      -0.01217128
Pd       7.63621401      -0.00471129       9.13694774  T       0.00000000       0.00000000       0.00000000      -0.00306635       0.00719643      -0.00551880
Pd       6.10934298       2.70219649       7.64653056  T       0.00000000       0.00000000       0.00000000      -0.00817888      -0.00127775      -0.00167633
Pd      12.21079733       8.11041431      10.77617906  T       0.00000000       0.00000000       0.00000000       0.01546908       0.00919532       0.00448051
Pd       7.63399583      10.81167532       6.11657540  F       0.00000000       0.00000000       0.00000000      -0.00037658      -0.00618434      -0.03486098
Pd       6.10718592       2.70292523       4.56558724  F       0.00000000       0.00000000       0.00000000       0.00014053       0.00011578       0.11349551
Pd       1.52679635       5.40584612       3.02679635  F       0.00000000       0.00000000       0.00000000      -0.00000393       0.00011720       0.04890203
Pd       0.00000000       2.70292306       1.50000000  F       0.00000000       0.00000000       0.00000000      -0.00006597      -0.00001777      -0.90401965
C       13.60977001      11.71044338      15.01050422  T       0.00000000       0.00000000       0.00000000      -0.00003381      -0.00341047      -0.02933196
O       12.79594407      12.49429819      15.21187434  T       0.00000000       0.00000000       0.00000000      -0.01469014      -0.02018586       0.03788060
O        4.60660656       2.82418987      13.82137915  T       0.00000000       0.00000000       0.00000000      -0.00910471      -0.01042389      -0.00146241
C        4.22391635       2.63287800      15.11600896  T       0.00000000       0.00000000       0.00000000      -0.00589944       0.00230914      -0.00623449
H        5.10859975       2.57957236      15.80312994  T       0.00000000       0.00000000       0.00000000       0.00350850       0.00037546       0.01834337
H        3.55562007       3.44962797      15.49054541  T       0.00000000       0.00000000       0.00000000      -0.02170302       0.01823285       0.00632763
H        3.65676825       1.66895669      15.24958730  T       0.00000000       0.00000000       0.00000000      -0.01705447      -0.02960962       0.01260146
