       N       E                     dE             d eps       ncg     rms          rms(c)
DAV:   1     0.507872325601E+03    0.50787E+03   -0.29785E+04  7628   0.142E+03
DAV:   2    -0.136190616707E+02   -0.52149E+03   -0.50260E+03  8460   0.433E+02
DAV:   3    -0.406040364317E+02   -0.26985E+02   -0.26753E+02  7900   0.105E+02
DAV:   4    -0.409126107299E+02   -0.30857E+00   -0.30821E+00  7984   0.122E+01
DAV:   5    -0.409162469072E+02   -0.36362E-02   -0.36359E-02  7712   0.132E+00    0.279E+01
DAV:   6    -0.355608842608E+02    0.53554E+01   -0.50072E+01  7716   0.643E+01    0.154E+01
DAV:   7    -0.322549584464E+02    0.33059E+01   -0.15190E+01  7560   0.351E+01    0.541E+00
DAV:   8    -0.321908684546E+02    0.64090E-01   -0.12475E+00  7628   0.645E+00    0.298E+00
DAV:   9    -0.321702495600E+02    0.20619E-01   -0.12465E-01  7844   0.315E+00    0.838E-01
DAV:  10    -0.321675818665E+02    0.26677E-02   -0.17052E-02  7628   0.122E+00    0.277E-01
DAV:  11    -0.321676288957E+02   -0.47029E-04   -0.19811E-03  7668   0.360E-01    0.118E-01
DAV:  12    -0.321675853802E+02    0.43516E-04   -0.21833E-04  7744   0.937E-02    0.523E-02
DAV:  13    -0.321676002727E+02   -0.14893E-04   -0.78251E-05  7712   0.520E-02    0.126E-02
DAV:  14    -0.321676026183E+02   -0.23457E-05   -0.30592E-06  6384   0.131E-02    0.489E-03
DAV:  15    -0.321676023779E+02    0.24046E-06   -0.76262E-07  4536   0.708E-03
   1 F= -.33581622E+02 E0= -.33579104E+02  d E =-.503503E-02  mag=    -0.3255
