 vasp.6.4.3 19Mar24 (build Nov 27 2025 15:18:09) complex                         
 executed on              LinuxNV date 2026.06.04  16:43:12
 running    4 mpi-ranks, with    1 threads/rank, on    1 nodes
 distrk:  each k-point on    4 cores,    1 groups
 distr:  one band on NCORE=   1 cores,    4 groups
 OpenACC runtime initialized ...    0 GPUs detected


--------------------------------------------------------------------------------------------------------


 INCAR:
   SYSTEM = pddmc
   ENCUT = 400
   PREC = Accurate
   LASPH = .TRUE.
   ADDGRID = .TRUE.
   ISPIN = 2
   IVDW = 12
   EDIFF = 1e-06
   NELM = 200
   NELMIN = 5
   ALGO = Normal
   NCORE = 1
   LREAL = .FALSE.
   LWAVE = .FALSE.
   LCHARG = .FALSE.
   LORBIT = 11
   ISYM = 2
   IBRION = -1
   NSW = 0
   ISIF = 0
   ISMEAR = 0
   SIGMA = 0.05
   EDIFFG = -0.01

 POTCAR:    PAW_PBE Pd_pv 28Jan2005               
 POTCAR:    PAW_PBE O 08Apr2002                   
 -----------------------------------------------------------------------------
|                                                                             |
|           W    W    AA    RRRRR   N    N  II  N    N   GGGG   !!!           |
|           W    W   A  A   R    R  NN   N  II  NN   N  G    G  !!!           |
|           W    W  A    A  R    R  N N  N  II  N N  N  G       !!!           |
|           W WW W  AAAAAA  RRRRR   N  N N  II  N  N N  G  GGG   !            |
|           WW  WW  A    A  R   R   N   NN  II  N   NN  G    G                |
|           W    W  A    A  R    R  N    N  II  N    N   GGGG   !!!           |
|                                                                             |
|     You use a magnetic or noncollinear calculation, but did not specify     |
|     the initial magnetic moment with the MAGMOM tag. Note that a            |
|     default of 1 will be used for all atoms. This ferromagnetic setup       |
|     may break the symmetry of the crystal, in particular it may rule        |
|     out finding an antiferromagnetic solution. Thence, we recommend         |
|     setting the initial magnetic moment manually or verifying carefully     |
|     that this magnetic setup is desired.                                    |
|                                                                             |
 -----------------------------------------------------------------------------

 POTCAR:    PAW_PBE Pd_pv 28Jan2005               
   SHA256 =  3ce661545bbde58da9a95410dea32907db2844916708bcd35bbe03ee66324d7f Pd_pv/POTCAR          
   COPYR  = (c) Copyright 28Jan2005 Georg Kresse                                                    
   COPYR  = This file is part of the software VASP. Any use, copying, and all other rights are regul
   COPYR  = If you do not have a valid VASP license, you may not use, copy or distribute this file. 
   VRHFIN =Pd: 4p5s4d                                                                               
   LEXCH  = PE                                                                                      
   EATOM  =  2621.5550 eV,  192.6789 Ry                                                             
                                                                                                    
   TITEL  = PAW_PBE Pd_pv 28Jan2005                                                                 
   LULTRA =        F    use ultrasoft PP ?                                                          
   IUNSCR =        1    unscreen: 0-lin 1-nonlin 2-no                                               
   RPACOR =    2.250    partial core radius                                                         
   POMASS =  106.420; ZVAL   =   16.000    mass and valenz                                          
   RCORE  =    2.400    outmost cutoff radius                                                       
   RWIGS  =    2.300; RWIGS  =    1.217    wigner-seitz radius (au A)                               
   ENMAX  =  250.925; ENMIN  =  188.194 eV                                                          
   ICORE  =        3    local potential                                                             
   LCOR   =        T    correct aug charges                                                         
   LPAW   =        T    paw PP                                                                      
   EAUG   =  473.067                                                                                
   DEXC   =    0.000                                                                                
   RMAX   =    2.449    core radius for proj-oper                                                   
   RAUG   =    1.300    factor for augmentation sphere                                              
   RDEP   =    2.405    radius for radial grids                                                     
   RDEPT  =    1.966    core radius for aug-charge                                                  
                                                                                                    
   Atomic configuration                                                                             
   11 entries                                                                                       
     n  l   j            E        occ.                                                              
     1  0  0.50    -24164.6632   2.0000                                                             
     2  0  0.50     -3530.9218   2.0000                                                             
     2  1  1.50     -3165.6822   6.0000                                                             
     3  0  0.50      -639.4578   2.0000                                                             
     3  1  1.50      -519.4532   6.0000                                                             
     3  2  2.50      -328.9758  10.0000                                                             
     4  0  0.50       -88.7014   2.0000                                                             
     4  1  1.50       -54.4541   6.0000                                                             
     4  2  2.50        -6.6878   9.0000                                                             
     5  0  0.50        -4.3543   1.0000                                                             
     4  3  2.50        -1.3606   0.0000                                                             
   Description                                                                                      
     l       E           TYP  RCUT    TYP  RCUT                                                     
     1    -54.4540524     23  2.100                                                                 
     1      4.0817478     23  2.100                                                                 
     2     -6.6878326     23  2.400                                                                 
     2     -4.0817478     23  2.400                                                                 
     0     -4.3542962     23  2.400                                                                 
     0     13.6058260     23  2.400                                                                 
     3     -5.4423304     23  2.400                                                                 
  local pseudopotential read in
  partial core-charges read in
  partial kinetic energy density read in
  atomic valenz-charges read in
  non local Contribution for L=            1  read in
    real space projection operators read in
  non local Contribution for L=            1  read in
    real space projection operators read in
  non local Contribution for L=            2  read in
    real space projection operators read in
  non local Contribution for L=            2  read in
    real space projection operators read in
  non local Contribution for L=            0  read in
    real space projection operators read in
  non local Contribution for L=            0  read in
    real space projection operators read in
    PAW grid and wavefunctions read in
 
   number of l-projection  operators is LMAX  =            6
   number of lm-projection operators is LMMAX =           18
 
 POTCAR:    PAW_PBE O 08Apr2002                   
   SHA256 =  818f92134a0a090dccd8ba1447fa70422a3b330e708bb4f08108d8ae51209ddf O/POTCAR              
   COPYR  = (c) Copyright 08Apr2002 Georg Kresse                                                    
   COPYR  = This file is part of the software VASP. Any use, copying, and all other rights are regul
   COPYR  = If you do not have a valid VASP license, you may not use, copy or distribute this file. 
   VRHFIN =O: s2p4                                                                                  
   LEXCH  = PE                                                                                      
   EATOM  =   432.3788 eV,   31.7789 Ry                                                             
                                                                                                    
   TITEL  = PAW_PBE O 08Apr2002                                                                     
   LULTRA =        F    use ultrasoft PP ?                                                          
   IUNSCR =        1    unscreen: 0-lin 1-nonlin 2-no                                               
   RPACOR =    1.200    partial core radius                                                         
   POMASS =   16.000; ZVAL   =    6.000    mass and valenz                                          
   RCORE  =    1.520    outmost cutoff radius                                                       
   RWIGS  =    1.550; RWIGS  =    0.820    wigner-seitz radius (au A)                               
   ENMAX  =  400.000; ENMIN  =  300.000 eV                                                          
   ICORE  =        2    local potential                                                             
   LCOR   =        T    correct aug charges                                                         
   LPAW   =        T    paw PP                                                                      
   EAUG   =  605.392                                                                                
   DEXC   =    0.000                                                                                
   RMAX   =    1.553    core radius for proj-oper                                                   
   RAUG   =    1.300    factor for augmentation sphere                                              
   RDEP   =    1.550    radius for radial grids                                                     
   RDEPT  =    1.329    core radius for aug-charge                                                  
                                                                                                    
   Atomic configuration                                                                             
    4 entries                                                                                       
     n  l   j            E        occ.                                                              
     1  0  0.50      -514.6923   2.0000                                                             
     2  0  0.50       -23.9615   2.0000                                                             
     2  1  0.50        -9.0305   4.0000                                                             
     3  2  1.50        -9.5241   0.0000                                                             
   Description                                                                                      
     l       E           TYP  RCUT    TYP  RCUT                                                     
     0    -23.9615318     23  1.200                                                                 
     0     -9.5240782     23  1.200                                                                 
     1     -9.0304911     23  1.520                                                                 
     1      8.1634956     23  1.520                                                                 
     2     -9.5240782      7  1.500                                                                 
  local pseudopotential read in
  partial core-charges read in
  partial kinetic energy density read in
  kinetic energy density of atom read in
  atomic valenz-charges read in
  non local Contribution for L=            0  read in
    real space projection operators read in
  non local Contribution for L=            0  read in
    real space projection operators read in
  non local Contribution for L=            1  read in
    real space projection operators read in
  non local Contribution for L=            1  read in
    real space projection operators read in
    PAW grid and wavefunctions read in
 
   number of l-projection  operators is LMAX  =            4
   number of lm-projection operators is LMMAX =            8
 
  PAW_PBE Pd_pv 28Jan2005               :
 energy of atom  1       EATOM=-2621.5550
 kinetic energy error for atom=    0.0211 (will be added to EATOM!!)
  PAW_PBE O 08Apr2002                   :
 energy of atom  2       EATOM= -432.3788
 kinetic energy error for atom=    0.1156 (will be added to EATOM!!)
 
 
 POSCAR: Pd O
  positions in cartesian coordinates
  No initial velocities read in
 IVDW         = 12
 VDW_S6       =    1.0000
 VDW_S8       =    0.7875
 VDW_A1       =    0.4289
 VDW_A2       =    4.4407
 VDW_RADIUS   =   50.2022 A
 VDW_CNRADIUS =   21.1671 A


 exchange-correlation table for PE
   RHO(1)=    0.500       N(1)  =     2000
   RHO(2)=  100.500       N(2)  =     4000
 


--------------------------------------------------------------------------------------------------------


 ion  position               nearest neighbor table
   1  0.500  0.500  0.500-   3 1.97   4 1.97   5 2.00   6 2.00   5 2.00   6 2.00
   2  0.000  0.000  0.000-   5 1.97   6 1.97   3 2.00   4 2.00   3 2.00   4 2.00
   3  0.808  0.192  0.500-   1 1.97   2 2.00   2 2.00
   4  0.192  0.808  0.500-   1 1.97   2 2.00   2 2.00
   5  0.308  0.308  0.000-   2 1.97   1 2.00   1 2.00
   6  0.692  0.692  0.000-   2 1.97   1 2.00   1 2.00
 
  LATTYP: Found a simple tetragonal cell.
 ALAT       =     4.5222304600
 C/A-ratio  =     0.6957349162
  
  Lattice vectors:
  
 A1 = (   4.5222304600,   0.0000000000,   0.0000000000)
 A2 = (   0.0000000000,   4.5222304600,   0.0000000000)
 A3 = (   0.0000000000,   0.0000000000,   3.1462736300)


Analysis of symmetry for initial positions (statically):
=====================================================================
 Subroutine PRICEL returns:
 Original cell was already a primitive cell.
 

 Routine SETGRP: Setting up the symmetry group for a 
 simple tetragonal supercell.


 Subroutine GETGRP returns: Found 16 space group operations
 (whereof  8 operations were pure point group operations)
 out of a pool of 16 trial point group operations.


The static configuration has the point symmetry D_2h.
 The point group associated with its full space group is D_4h.


Analysis of symmetry for dynamics (positions and initial velocities):
=====================================================================
 Subroutine PRICEL returns:
 Original cell was already a primitive cell.
 

 Routine SETGRP: Setting up the symmetry group for a 
 simple tetragonal supercell.


 Subroutine GETGRP returns: Found 16 space group operations
 (whereof  8 operations were pure point group operations)
 out of a pool of 16 trial point group operations.


The dynamic configuration has the point symmetry D_2h.
 The point group associated with its full space group is D_4h.


Analysis of structural, dynamic, and magnetic symmetry:
=====================================================================
 Subroutine PRICEL returns:
 Original cell was already a primitive cell.
 

 Routine SETGRP: Setting up the symmetry group for a 
 simple tetragonal supercell.


 Subroutine GETGRP returns: Found 16 space group operations
 (whereof  8 operations were pure point group operations)
 out of a pool of 16 trial point group operations.


The overall configuration has the point symmetry D_2h.
 The point group associated with its full space group is D_4h.


 Subroutine INISYM returns: Found 16 space group operations
 (whereof  8 operations are pure point group operations),
 and found     1 'primitive' translations


----------------------------------------------------------------------------------------

                                     Primitive cell                                     

  volume of cell :      64.3431

  direct lattice vectors                    reciprocal lattice vectors
     4.522230460  0.000000000  0.000000000     0.221129818 -0.000000000  0.000000000
     0.000000000  4.522230460  0.000000000     0.000000000  0.221129818  0.000000000
     0.000000000  0.000000000  3.146273630    -0.000000000 -0.000000000  0.317836310

  length of vectors
     4.522230460  4.522230460  3.146273630     0.221129818  0.221129818  0.317836310

  position of ions in fractional coordinates (direct lattice)
     0.500000000  0.500000000  0.500000000
     0.000000000  0.000000000  0.000000000
     0.808151920  0.191848080  0.500000000
     0.191848080  0.808151920  0.500000000
     0.308151920  0.308151920  1.000000000
     0.691848080  0.691848080  1.000000000

  ion indices of the primitive-cell ions
   primitive index   ion index
                 1           1
                 2           2
                 3           3
                 4           4
                 5           5
                 6           6

----------------------------------------------------------------------------------------

 
 
 KPOINTS: Automatic mesh                          

Automatic generation of k-mesh.
 Grid dimensions read from file:
 generate k-points for:    6    6    8

 Generating k-lattice:

  Cartesian coordinates                     Fractional coordinates (reciprocal lattice)
     0.036854970 -0.000000000  0.000000000     0.166666667 -0.000000000  0.000000000
     0.000000000  0.036854970  0.000000000     0.000000000  0.166666667  0.000000000
    -0.000000000 -0.000000000  0.039729539     0.000000000 -0.000000000  0.125000000

  Length of vectors
     0.036854970  0.036854970  0.039729539

  Shift w.r.t. Gamma in fractional coordinates (k-lattice)
     0.000000000  0.000000000  0.000000000

 
 Subroutine IBZKPT returns following result:
 ===========================================
 
 Found     50 irreducible k-points:
 
 Following reciprocal coordinates:
            Coordinates               Weight
  0.000000  0.000000  0.000000      1.000000
  0.166667  0.000000  0.000000      4.000000
  0.333333  0.000000  0.000000      4.000000
  0.500000  0.000000  0.000000      2.000000
  0.166667  0.166667  0.000000      4.000000
  0.333333  0.166667  0.000000      8.000000
  0.500000  0.166667  0.000000      4.000000
  0.333333  0.333333  0.000000      4.000000
  0.500000  0.333333  0.000000      4.000000
  0.500000  0.500000  0.000000      1.000000
  0.000000  0.000000  0.125000      2.000000
  0.166667  0.000000  0.125000      8.000000
  0.333333  0.000000  0.125000      8.000000
  0.500000  0.000000  0.125000      4.000000
  0.166667  0.166667  0.125000      8.000000
  0.333333  0.166667  0.125000     16.000000
  0.500000  0.166667  0.125000      8.000000
  0.333333  0.333333  0.125000      8.000000
  0.500000  0.333333  0.125000      8.000000
  0.500000  0.500000  0.125000      2.000000
  0.000000  0.000000  0.250000      2.000000
  0.166667  0.000000  0.250000      8.000000
  0.333333  0.000000  0.250000      8.000000
  0.500000  0.000000  0.250000      4.000000
  0.166667  0.166667  0.250000      8.000000
  0.333333  0.166667  0.250000     16.000000
  0.500000  0.166667  0.250000      8.000000
  0.333333  0.333333  0.250000      8.000000
  0.500000  0.333333  0.250000      8.000000
  0.500000  0.500000  0.250000      2.000000
  0.000000  0.000000  0.375000      2.000000
  0.166667  0.000000  0.375000      8.000000
  0.333333  0.000000  0.375000      8.000000
  0.500000  0.000000  0.375000      4.000000
  0.166667  0.166667  0.375000      8.000000
  0.333333  0.166667  0.375000     16.000000
  0.500000  0.166667  0.375000      8.000000
  0.333333  0.333333  0.375000      8.000000
  0.500000  0.333333  0.375000      8.000000
  0.500000  0.500000  0.375000      2.000000
  0.000000  0.000000  0.500000      1.000000
  0.166667  0.000000  0.500000      4.000000
  0.333333  0.000000  0.500000      4.000000
  0.500000  0.000000  0.500000      2.000000
  0.166667  0.166667  0.500000      4.000000
  0.333333  0.166667  0.500000      8.000000
  0.500000  0.166667  0.500000      4.000000
  0.333333  0.333333  0.500000      4.000000
  0.500000  0.333333  0.500000      4.000000
  0.500000  0.500000  0.500000      1.000000
 
 Following cartesian coordinates:
            Coordinates               Weight
  0.000000  0.000000  0.000000      1.000000
  0.036855  0.000000  0.000000      4.000000
  0.073710  0.000000  0.000000      4.000000
  0.110565  0.000000  0.000000      2.000000
  0.036855  0.036855  0.000000      4.000000
  0.073710  0.036855  0.000000      8.000000
  0.110565  0.036855  0.000000      4.000000
  0.073710  0.073710  0.000000      4.000000
  0.110565  0.073710  0.000000      4.000000
  0.110565  0.110565  0.000000      1.000000
  0.000000  0.000000  0.039730      2.000000
  0.036855  0.000000  0.039730      8.000000
  0.073710  0.000000  0.039730      8.000000
  0.110565  0.000000  0.039730      4.000000
  0.036855  0.036855  0.039730      8.000000
  0.073710  0.036855  0.039730     16.000000
  0.110565  0.036855  0.039730      8.000000
  0.073710  0.073710  0.039730      8.000000
  0.110565  0.073710  0.039730      8.000000
  0.110565  0.110565  0.039730      2.000000
  0.000000  0.000000  0.079459      2.000000
  0.036855  0.000000  0.079459      8.000000
  0.073710  0.000000  0.079459      8.000000
  0.110565  0.000000  0.079459      4.000000
  0.036855  0.036855  0.079459      8.000000
  0.073710  0.036855  0.079459     16.000000
  0.110565  0.036855  0.079459      8.000000
  0.073710  0.073710  0.079459      8.000000
  0.110565  0.073710  0.079459      8.000000
  0.110565  0.110565  0.079459      2.000000
  0.000000  0.000000  0.119189      2.000000
  0.036855  0.000000  0.119189      8.000000
  0.073710  0.000000  0.119189      8.000000
  0.110565  0.000000  0.119189      4.000000
  0.036855  0.036855  0.119189      8.000000
  0.073710  0.036855  0.119189     16.000000
  0.110565  0.036855  0.119189      8.000000
  0.073710  0.073710  0.119189      8.000000
  0.110565  0.073710  0.119189      8.000000
  0.110565  0.110565  0.119189      2.000000
  0.000000  0.000000  0.158918      1.000000
  0.036855  0.000000  0.158918      4.000000
  0.073710  0.000000  0.158918      4.000000
  0.110565  0.000000  0.158918      2.000000
  0.036855  0.036855  0.158918      4.000000
  0.073710  0.036855  0.158918      8.000000
  0.110565  0.036855  0.158918      4.000000
  0.073710  0.073710  0.158918      4.000000
  0.110565  0.073710  0.158918      4.000000
  0.110565  0.110565  0.158918      1.000000
 


--------------------------------------------------------------------------------------------------------




 Dimension of arrays:
   k-points           NKPTS =     50   k-points in BZ     NKDIM =     50   number of bands    NBANDS=     36
   number of dos      NEDOS =    301   number of ions     NIONS =      6
   non local maximal  LDIM  =      6   non local SUM 2l+1 LMDIM =     18
   total plane-waves  NPLWV =  21600
   max r-space proj   IRMAX =      1   max aug-charges    IRDMAX= 107704
   dimension x,y,z NGX =    30 NGY =   30 NGZ =   24
   dimension x,y,z NGXF=    60 NGYF=   60 NGZF=   48
   support grid    NGXF=   120 NGYF=  120 NGZF=   96
   ions per type =               2   4
   NGX,Y,Z   is equivalent  to a cutoff of  11.03, 11.03, 12.68 a.u.
   NGXF,Y,Z  is equivalent  to a cutoff of  22.06, 22.06, 25.36 a.u.

 SYSTEM =  pddmc                                   
 POSCAR =  Pd O                                    

 Startparameter for this run:
   NWRITE =      2    write-flag & timer
   PREC   = accura    normal or accurate (medium, high low for compatibility)
   ISTART =      0    job   : 0-new  1-cont  2-samecut
   ICHARG =      2    charge: 1-file 2-atom 10-const
   ISPIN  =      2    spin polarized calculation?
   LNONCOLLINEAR =      F non collinear calculations
   LSORBIT =      F    spin-orbit coupling
   INIWAV =      1    electr: 0-lowe 1-rand  2-diag
   LASPH  =      T    aspherical Exc in radial PAW
 Electronic Relaxation 1
   ENCUT  =  400.0 eV  29.40 Ry    5.42 a.u.   7.37  7.37  5.13*2*pi/ulx,y,z
   ENINI  =  400.0     initial cutoff
   ENAUG  =  605.4 eV  augmentation charge cutoff
   NELM   =    200;   NELMIN=  5; NELMDL= -5     # of ELM steps 
   EDIFF  = 0.1E-05   stopping-criterion for ELM
   LREAL  =      F    real-space projection
   NLSPLINE    = F    spline interpolate recip. space projectors
   LCOMPAT=      F    compatible to vasp.4.4
   GGA_COMPAT  = T    GGA compatible to vasp.4.4-vasp.4.6
   LMAXPAW     = -100 max onsite density
   LMAXMIX     =    2 max onsite mixed and CHGCAR
   VOSKOWN=      0    Vosko Wilk Nusair interpolation
   ROPT   =    0.00000   0.00000
 Ionic relaxation
   EDIFFG = -.1E-01   stopping-criterion for IOM
   NSW    =      0    number of steps for IOM
   NBLOCK =      1;   KBLOCK =      1    inner block; outer block 
   IBRION =     -1    ionic relax: 0-MD 1-quasi-New 2-CG
   NFREE  =      0    steps in history (QN), initial steepest desc. (CG)
   ISIF   =      0    stress and relaxation
   IWAVPR =     10    prediction:  0-non 1-charg 2-wave 3-comb
   ISYM   =      2    0-nonsym 1-usesym 2-fastsym
   LCORR  =      T    Harris-Foulkes like correction to forces

   POTIM  = 0.5000    time-step for ionic-motion
   TEIN   =    0.0    initial temperature
   TEBEG  =    0.0;   TEEND  =   0.0 temperature during run
   SMASS  =  -3.00    Nose mass-parameter (am)
   estimated Nose-frequenzy (Omega)   =  0.10E-29 period in steps = 0.13E+47 mass=  -0.467E-27a.u.
   SCALEE = 1.0000    scale energy and forces
   NPACO  =    256;   APACO  = 10.0  distance and # of slots for P.C.
   PSTRESS=    0.0 pullay stress

  Mass of Ions in am
   POMASS = 106.42 16.00
  Ionic Valenz
   ZVAL   =  16.00  6.00
  Atomic Wigner-Seitz radii
   RWIGS  =  -1.00 -1.00
  virtual crystal weights 
   VCA    =   1.00  1.00
   NELECT =      56.0000    total number of electrons
   NUPDOWN=      -1.0000    fix difference up-down

 DOS related values:
   EMIN   =  10.00;   EMAX   =-10.00  energy-range for DOS
   EFERMI =   0.00;   METHOD = LEGACY      
   ISMEAR =     0;   SIGMA  =   0.05  broadening in eV -4-tet -1-fermi 0-gaus

 Electronic relaxation 2 (details)
   IALGO  =     38    algorithm
   LDIAG  =      T    sub-space diagonalisation (order eigenvalues)
   LSUBROT=      F    optimize rotation matrix (better conditioning)
   TURBO    =      0    0=normal 1=particle mesh
   IRESTART =      0    0=no restart 2=restart with 2 vectors
   NREBOOT  =      0    no. of reboots
   NMIN     =      0    reboot dimension
   EREF     =   0.00    reference energy to select bands
   IMIX   =      4    mixing-type and parameters
     AMIX     =   0.40;   BMIX     =  1.00
     AMIX_MAG =   1.60;   BMIX_MAG =  1.00
     AMIN     =   0.10
     WC   =   100.;   INIMIX=   1;  MIXPRE=   1;  MAXMIX= -45

 Intra band minimization:
   WEIMIN = 0.0000     energy-eigenvalue tresh-hold
   EBREAK =  0.69E-08  absolut break condition
   DEPER  =   0.30     relativ break condition  

   TIME   =   0.40     timestep for ELM

  volume/ion in A,a.u.               =      10.72        72.37
  Fermi-wavevector in a.u.,A,eV,Ry     =   1.563040  2.953718 33.240331  2.443095
  Thomas-Fermi vector in A             =   2.665870
 
 Write flags
   LWAVE        =      F    write WAVECAR
   LDOWNSAMPLE  =      F    k-point downsampling of WAVECAR
   LCHARG       =      F    write CHGCAR
   LVTOT        =      F    write LOCPOT, total local potential
   LVHAR        =      F    write LOCPOT, Hartree potential only
   WRT_POTENTIAL= false  ! write potential to hdf5 file
   LELF         =      F    write electronic localiz. function (ELF)
   LORBIT       =     11    0 simple, 1 ext, 2 COOP (PROOUT), +10 PAW based schemes


 Dipole corrections
   LMONO      =      F    monopole corrections only (constant potential shift)
   LDIPOL     =      F    correct potential (dipole corrections)
   IDIPOL     =      0    1-x, 2-y, 3-z, 4-all directions 
   EPSILON    =  1.0000000 bulk dielectric constant
   LVACPOTAV  =      F  vacuum potentials using an averaging scheme for the charge density
   VACPOTFLAT =  0.1000000 required flatness to determine vacuum potential
 Exchange correlation treatment:
   GGA     = PE    functional components
   XC_C    = 1    coefficients multiplying the functional components
   LIBXC   =     F    Libxc                    
   VOSKOWN =     0    Vosko Wilk Nusair interpolation
   LHFCALC =     F    Hartree Fock is set to
   LHFONE  =     F    Hartree Fock one center treatment
   AEXX    =    0.0000 exact exchange contribution

 Parameters of functionals:
   PE:
     No parameter
 
 Van der Waals corrections
   IVDW    =    12    specifies the selected vdW correction

 Linear response parameters
   LEPSILON=     F    determine dielectric tensor
   LRPA    =     F    only Hartree local field effects (RPA)
   LNABLA  =     F    use nabla operator in PAW spheres
   LVEL    =     F    velocity operator in full k-point grid
   CSHIFT  =0.1000    complex shift for real part using Kramers Kronig
   OMEGAMAX=  -1.0    maximum frequency
   DEG_THRESHOLD= 0.2000000E-02 threshold for treating states as degnerate
   RTIME   =   -0.100 relaxation time in fs
  (WPLASMAI=    0.000 imaginary part of plasma frequency in eV, 0.658/RTIME)
   DFIELD  = 0.0000000 0.0000000 0.0000000 field for delta impulse in time
 
  Optional k-point grid parameters
   LKPOINTS_OPT  =     F    use optional k-point grid
   KPOINTS_OPT_MODE=     1    mode for optional k-point grid
 
 Orbital magnetization related:
   ORBITALMAG=     F  switch on orbital magnetization
   LCHIMAG   =     F  perturbation theory with respect to B field
   DQ        =  0.001000  dq finite difference perturbation B field
   LLRAUG    =     F  two centre corrections for induced B field
   LBONE     =     F  B-component reconstruction in AE one-centre
   LVGVCALC  =     T  calculate vGv susceptibility
   LVGVAPPL  =     F  apply vGv susceptibility instead of pGv for G=0

 Random number generation:
   RANDOM_GENERATOR = DEFAULT
   PCG_SEED         = not used


--------------------------------------------------------------------------------------------------------


 Static calculation
 charge density and potential will be updated during run
 spin polarized calculation
 Variant of blocked Davidson
 Davidson routine will perform the subspace rotation
 perform sub-space diagonalisation
    after iterative eigenvector-optimisation
 modified Broyden-mixing scheme, WC =      100.0
 initial mixing is a Kerker type mixing with AMIX =  0.4000 and BMIX =      1.0000
 Hartree-type preconditioning will be used
 using additional bands             8
 reciprocal scheme for non local part
 use partial core corrections
 calculate Harris-corrections to forces 
   (improved forces if not selfconsistent)
 use gradient corrections 
 use of overlap-Matrix (Vanderbilt PP)
 Gauss-broadening in eV      SIGMA  =   0.05


--------------------------------------------------------------------------------------------------------


  energy-cutoff  :      400.00
  volume of cell :       64.34
      direct lattice vectors                 reciprocal lattice vectors
     4.522230460  0.000000000  0.000000000     0.221129818 -0.000000000  0.000000000
     0.000000000  4.522230460  0.000000000     0.000000000  0.221129818  0.000000000
     0.000000000  0.000000000  3.146273630    -0.000000000 -0.000000000  0.317836310

  length of vectors
     4.522230460  4.522230460  3.146273630     0.221129818  0.221129818  0.317836310


 
 k-points in units of 2pi/SCALE and weight: Automatic mesh                          
   0.00000000  0.00000000  0.00000000       0.003
   0.03685497  0.00000000  0.00000000       0.014
   0.07370994  0.00000000  0.00000000       0.014
   0.11056491  0.00000000  0.00000000       0.007
   0.03685497  0.03685497  0.00000000       0.014
   0.07370994  0.03685497  0.00000000       0.028
   0.11056491  0.03685497  0.00000000       0.014
   0.07370994  0.07370994  0.00000000       0.014
   0.11056491  0.07370994  0.00000000       0.014
   0.11056491  0.11056491  0.00000000       0.003
   0.00000000  0.00000000  0.03972954       0.007
   0.03685497  0.00000000  0.03972954       0.028
   0.07370994  0.00000000  0.03972954       0.028
   0.11056491  0.00000000  0.03972954       0.014
   0.03685497  0.03685497  0.03972954       0.028
   0.07370994  0.03685497  0.03972954       0.056
   0.11056491  0.03685497  0.03972954       0.028
   0.07370994  0.07370994  0.03972954       0.028
   0.11056491  0.07370994  0.03972954       0.028
   0.11056491  0.11056491  0.03972954       0.007
   0.00000000  0.00000000  0.07945908       0.007
   0.03685497  0.00000000  0.07945908       0.028
   0.07370994  0.00000000  0.07945908       0.028
   0.11056491  0.00000000  0.07945908       0.014
   0.03685497  0.03685497  0.07945908       0.028
   0.07370994  0.03685497  0.07945908       0.056
   0.11056491  0.03685497  0.07945908       0.028
   0.07370994  0.07370994  0.07945908       0.028
   0.11056491  0.07370994  0.07945908       0.028
   0.11056491  0.11056491  0.07945908       0.007
   0.00000000  0.00000000  0.11918862       0.007
   0.03685497  0.00000000  0.11918862       0.028
   0.07370994  0.00000000  0.11918862       0.028
   0.11056491  0.00000000  0.11918862       0.014
   0.03685497  0.03685497  0.11918862       0.028
   0.07370994  0.03685497  0.11918862       0.056
   0.11056491  0.03685497  0.11918862       0.028
   0.07370994  0.07370994  0.11918862       0.028
   0.11056491  0.07370994  0.11918862       0.028
   0.11056491  0.11056491  0.11918862       0.007
   0.00000000  0.00000000  0.15891815       0.003
   0.03685497  0.00000000  0.15891815       0.014
   0.07370994  0.00000000  0.15891815       0.014
   0.11056491  0.00000000  0.15891815       0.007
   0.03685497  0.03685497  0.15891815       0.014
   0.07370994  0.03685497  0.15891815       0.028
   0.11056491  0.03685497  0.15891815       0.014
   0.07370994  0.07370994  0.15891815       0.014
   0.11056491  0.07370994  0.15891815       0.014
   0.11056491  0.11056491  0.15891815       0.003
 
 k-points in reciprocal lattice and weights: Automatic mesh                          
   0.00000000  0.00000000  0.00000000       0.003
   0.16666667  0.00000000  0.00000000       0.014
   0.33333333  0.00000000  0.00000000       0.014
   0.50000000  0.00000000  0.00000000       0.007
   0.16666667  0.16666667  0.00000000       0.014
   0.33333333  0.16666667  0.00000000       0.028
   0.50000000  0.16666667  0.00000000       0.014
   0.33333333  0.33333333  0.00000000       0.014
   0.50000000  0.33333333  0.00000000       0.014
   0.50000000  0.50000000  0.00000000       0.003
   0.00000000  0.00000000  0.12500000       0.007
   0.16666667  0.00000000  0.12500000       0.028
   0.33333333  0.00000000  0.12500000       0.028
   0.50000000  0.00000000  0.12500000       0.014
   0.16666667  0.16666667  0.12500000       0.028
   0.33333333  0.16666667  0.12500000       0.056
   0.50000000  0.16666667  0.12500000       0.028
   0.33333333  0.33333333  0.12500000       0.028
   0.50000000  0.33333333  0.12500000       0.028
   0.50000000  0.50000000  0.12500000       0.007
   0.00000000  0.00000000  0.25000000       0.007
   0.16666667  0.00000000  0.25000000       0.028
   0.33333333  0.00000000  0.25000000       0.028
   0.50000000  0.00000000  0.25000000       0.014
   0.16666667  0.16666667  0.25000000       0.028
   0.33333333  0.16666667  0.25000000       0.056
   0.50000000  0.16666667  0.25000000       0.028
   0.33333333  0.33333333  0.25000000       0.028
   0.50000000  0.33333333  0.25000000       0.028
   0.50000000  0.50000000  0.25000000       0.007
   0.00000000  0.00000000  0.37500000       0.007
   0.16666667  0.00000000  0.37500000       0.028
   0.33333333  0.00000000  0.37500000       0.028
   0.50000000  0.00000000  0.37500000       0.014
   0.16666667  0.16666667  0.37500000       0.028
   0.33333333  0.16666667  0.37500000       0.056
   0.50000000  0.16666667  0.37500000       0.028
   0.33333333  0.33333333  0.37500000       0.028
   0.50000000  0.33333333  0.37500000       0.028
   0.50000000  0.50000000  0.37500000       0.007
   0.00000000  0.00000000  0.50000000       0.003
   0.16666667  0.00000000  0.50000000       0.014
   0.33333333  0.00000000  0.50000000       0.014
   0.50000000  0.00000000  0.50000000       0.007
   0.16666667  0.16666667  0.50000000       0.014
   0.33333333  0.16666667  0.50000000       0.028
   0.50000000  0.16666667  0.50000000       0.014
   0.33333333  0.33333333  0.50000000       0.014
   0.50000000  0.33333333  0.50000000       0.014
   0.50000000  0.50000000  0.50000000       0.003
 
 position of ions in fractional coordinates (direct lattice) 
   0.50000000  0.50000000  0.50000000
   0.00000000  0.00000000  0.00000000
   0.80815192  0.19184808  0.50000000
   0.19184808  0.80815192  0.50000000
   0.30815192  0.30815192  0.00000000
   0.69184808  0.69184808  0.00000000
 
 position of ions in cartesian coordinates  (Angst):
   2.26111523  2.26111523  1.57313682
   0.00000000  0.00000000  0.00000000
   3.65464923  0.86758123  1.57313682
   0.86758123  3.65464923  1.57313682
   1.39353400  1.39353400  0.00000000
   3.12869646  3.12869646  0.00000000
 


--------------------------------------------------------------------------------------------------------


 k-point     1 :   0.0000 0.0000 0.0000  plane waves:    1179
 k-point     2 :   0.1667 0.0000 0.0000  plane waves:    1167
 k-point     3 :   0.3333 0.0000 0.0000  plane waves:    1145
 k-point     4 :   0.5000 0.0000 0.0000  plane waves:    1154
 k-point     5 :   0.1667 0.1667 0.0000  plane waves:    1167
 k-point     6 :   0.3333 0.1667 0.0000  plane waves:    1160
 k-point     7 :   0.5000 0.1667 0.0000  plane waves:    1168
 k-point     8 :   0.3333 0.3333 0.0000  plane waves:    1172
 k-point     9 :   0.5000 0.3333 0.0000  plane waves:    1174
 k-point    10 :   0.5000 0.5000 0.0000  plane waves:    1172
 k-point    11 :   0.0000 0.0000 0.1250  plane waves:    1179
 k-point    12 :   0.1667 0.0000 0.1250  plane waves:    1169
 k-point    13 :   0.3333 0.0000 0.1250  plane waves:    1161
 k-point    14 :   0.5000 0.0000 0.1250  plane waves:    1160
 k-point    15 :   0.1667 0.1667 0.1250  plane waves:    1164
 k-point    16 :   0.3333 0.1667 0.1250  plane waves:    1160
 k-point    17 :   0.5000 0.1667 0.1250  plane waves:    1160
 k-point    18 :   0.3333 0.3333 0.1250  plane waves:    1166
 k-point    19 :   0.5000 0.3333 0.1250  plane waves:    1168
 k-point    20 :   0.5000 0.5000 0.1250  plane waves:    1172
 k-point    21 :   0.0000 0.0000 0.2500  plane waves:    1178
 k-point    22 :   0.1667 0.0000 0.2500  plane waves:    1170
 k-point    23 :   0.3333 0.0000 0.2500  plane waves:    1164
 k-point    24 :   0.5000 0.0000 0.2500  plane waves:    1170
 k-point    25 :   0.1667 0.1667 0.2500  plane waves:    1168
 k-point    26 :   0.3333 0.1667 0.2500  plane waves:    1165
 k-point    27 :   0.5000 0.1667 0.2500  plane waves:    1174
 k-point    28 :   0.3333 0.3333 0.2500  plane waves:    1172
 k-point    29 :   0.5000 0.3333 0.2500  plane waves:    1168
 k-point    30 :   0.5000 0.5000 0.2500  plane waves:    1168
 k-point    31 :   0.0000 0.0000 0.3750  plane waves:    1194
 k-point    32 :   0.1667 0.0000 0.3750  plane waves:    1185
 k-point    33 :   0.3333 0.0000 0.3750  plane waves:    1172
 k-point    34 :   0.5000 0.0000 0.3750  plane waves:    1158
 k-point    35 :   0.1667 0.1667 0.3750  plane waves:    1179
 k-point    36 :   0.3333 0.1667 0.3750  plane waves:    1174
 k-point    37 :   0.5000 0.1667 0.3750  plane waves:    1166
 k-point    38 :   0.3333 0.3333 0.3750  plane waves:    1166
 k-point    39 :   0.5000 0.3333 0.3750  plane waves:    1168
 k-point    40 :   0.5000 0.5000 0.3750  plane waves:    1168
 k-point    41 :   0.0000 0.0000 0.5000  plane waves:    1194
 k-point    42 :   0.1667 0.0000 0.5000  plane waves:    1184
 k-point    43 :   0.3333 0.0000 0.5000  plane waves:    1188
 k-point    44 :   0.5000 0.0000 0.5000  plane waves:    1164
 k-point    45 :   0.1667 0.1667 0.5000  plane waves:    1180
 k-point    46 :   0.3333 0.1667 0.5000  plane waves:    1182
 k-point    47 :   0.5000 0.1667 0.5000  plane waves:    1172
 k-point    48 :   0.3333 0.3333 0.5000  plane waves:    1156
 k-point    49 :   0.5000 0.3333 0.5000  plane waves:    1164
 k-point    50 :   0.5000 0.5000 0.5000  plane waves:    1152

 maximum and minimum number of plane-waves per node :      1194     1145

 maximum number of plane-waves:      1194
 maximum index in each direction: 
   IXMAX=    7   IYMAX=    7   IZMAX=    5
   IXMIN=   -7   IYMIN=   -7   IZMIN=   -5


 serial   3D FFT for wavefunctions
 parallel 3D FFT for charge:
    minimum data exchange during FFTs selected (reduces bandwidth)


 total amount of memory used by VASP MPI-rank0    77580. kBytes
=======================================================================

   base      :      30000. kBytes
   nonl-proj :      17337. kBytes
   fftplans  :       6528. kBytes
   grid      :       5328. kBytes
   one-center:        186. kBytes
   wavefun   :      18201. kBytes
 
     INWAV:  cpu time      0.0000: real time      0.0001
 Broyden mixing: mesh for mixing (old mesh)
   NGX = 15   NGY = 15   NGZ = 11
  (NGX  = 60   NGY  = 60   NGZ  = 48)
  gives a total of   2475 points

 initial charge density was supplied:
 charge density of overlapping atoms calculated
 number of electron      56.0000000 magnetization       6.0000000
 keeping initial charge density in first step


--------------------------------------------------------------------------------------------------------


 Maximum index for augmentation-charges         25947 (set IRDMAX)


--------------------------------------------------------------------------------------------------------


 First call to EWALD:  gamma=   0.442
 Maximum number of real-space cells 2x 2x 3
 Maximum number of reciprocal cells 3x 3x 2

    FEWALD:  cpu time      0.0004: real time      0.0004


--------------------------------------- Ionic step        1  -------------------------------------------




--------------------------------------- Iteration      1(   1)  ---------------------------------------


    POTLOK:  cpu time      0.0332: real time      0.0333
    SETDIJ:  cpu time      0.5651: real time      0.5792
     EDDAV:  cpu time      2.7015: real time      3.1035
       DOS:  cpu time      0.0007: real time      0.0007
    --------------------------------------------
      LOOP:  cpu time      3.3005: real time      3.7167

 eigenvalue-minimisations  :  7628
 total energy-change (2. order) : 0.5078723E+03  (-0.2978463E+04)
 number of electron      56.0000000 magnetization       6.0000000
 augmentation part       56.0000000 magnetization       6.0000000

 Free energy of the ion-electron system (eV)
  ---------------------------------------------------
  alpha Z        PSCENC =       302.45619847
  Ewald energy   TEWEN  =     -5214.09126118
  -Hartree energ DENC   =     -1860.07067583
  -exchange      EXHF   =         0.00000000
  -V(xc)+E(xc)   XCENC  =       277.13147772
  PAW double counting   =      5901.46612542    -5850.99266113
  entropy T*S    EENTRO =        -0.00086986
  eigenvalues    EBANDS =       -20.14661986
  atomic energy  EATOM  =      6972.12061185
  Solvation  Ediel_sol  =         0.00000000
  ---------------------------------------------------
  free energy    TOTEN  =       507.87232560 eV

  energy without entropy =      507.87319546  energy(sigma->0) =      507.87276053


--------------------------------------------------------------------------------------------------------




--------------------------------------- Iteration      1(   2)  ---------------------------------------


     EDDAV:  cpu time      2.6980: real time      2.7066
       DOS:  cpu time      0.0005: real time      0.0005
    --------------------------------------------
      LOOP:  cpu time      2.6985: real time      2.7072

 eigenvalue-minimisations  :  8460
 total energy-change (2. order) :-0.5214914E+03  (-0.5025975E+03)
 number of electron      56.0000000 magnetization       6.0000000
 augmentation part       56.0000000 magnetization       6.0000000

 Free energy of the ion-electron system (eV)
  ---------------------------------------------------
  alpha Z        PSCENC =       302.45619847
  Ewald energy   TEWEN  =     -5214.09126118
  -Hartree energ DENC   =     -1860.07067583
  -exchange      EXHF   =         0.00000000
  -V(xc)+E(xc)   XCENC  =       277.13147772
  PAW double counting   =      5901.46612542    -5850.99266113
  entropy T*S    EENTRO =        -0.00248469
  eigenvalues    EBANDS =      -541.63639230
  atomic energy  EATOM  =      6972.12061185
  Solvation  Ediel_sol  =         0.00000000
  ---------------------------------------------------
  free energy    TOTEN  =       -13.61906167 eV

  energy without entropy =      -13.61657698  energy(sigma->0) =      -13.61781932


--------------------------------------------------------------------------------------------------------




--------------------------------------- Iteration      1(   3)  ---------------------------------------


     EDDAV:  cpu time      2.5361: real time      2.5368
       DOS:  cpu time      0.0005: real time      0.0005
    --------------------------------------------
      LOOP:  cpu time      2.5367: real time      2.5373

 eigenvalue-minimisations  :  7900
 total energy-change (2. order) :-0.2698497E+02  (-0.2675270E+02)
 number of electron      56.0000000 magnetization       6.0000000
 augmentation part       56.0000000 magnetization       6.0000000

 Free energy of the ion-electron system (eV)
  ---------------------------------------------------
  alpha Z        PSCENC =       302.45619847
  Ewald energy   TEWEN  =     -5214.09126118
  -Hartree energ DENC   =     -1860.07067583
  -exchange      EXHF   =         0.00000000
  -V(xc)+E(xc)   XCENC  =       277.13147772
  PAW double counting   =      5901.46612542    -5850.99266113
  entropy T*S    EENTRO =        -0.00395585
  eigenvalues    EBANDS =      -568.61989590
  atomic energy  EATOM  =      6972.12061185
  Solvation  Ediel_sol  =         0.00000000
  ---------------------------------------------------
  free energy    TOTEN  =       -40.60403643 eV

  energy without entropy =      -40.60008058  energy(sigma->0) =      -40.60205851


--------------------------------------------------------------------------------------------------------




--------------------------------------- Iteration      1(   4)  ---------------------------------------


     EDDAV:  cpu time      2.9001: real time      2.9008
       DOS:  cpu time      0.0005: real time      0.0005
    --------------------------------------------
      LOOP:  cpu time      2.9006: real time      2.9013

 eigenvalue-minimisations  :  7984
 total energy-change (2. order) :-0.3085743E+00  (-0.3082121E+00)
 number of electron      56.0000000 magnetization       6.0000000
 augmentation part       56.0000000 magnetization       6.0000000

 Free energy of the ion-electron system (eV)
  ---------------------------------------------------
  alpha Z        PSCENC =       302.45619847
  Ewald energy   TEWEN  =     -5214.09126118
  -Hartree energ DENC   =     -1860.07067583
  -exchange      EXHF   =         0.00000000
  -V(xc)+E(xc)   XCENC  =       277.13147772
  PAW double counting   =      5901.46612542    -5850.99266113
  entropy T*S    EENTRO =        -0.00410043
  eigenvalues    EBANDS =      -568.92832562
  atomic energy  EATOM  =      6972.12061185
  Solvation  Ediel_sol  =         0.00000000
  ---------------------------------------------------
  free energy    TOTEN  =       -40.91261073 eV

  energy without entropy =      -40.90851030  energy(sigma->0) =      -40.91056051


--------------------------------------------------------------------------------------------------------




--------------------------------------- Iteration      1(   5)  ---------------------------------------


     EDDAV:  cpu time      2.4304: real time      2.4310
       DOS:  cpu time      0.0005: real time      0.0005
    CHARGE:  cpu time      0.2213: real time      0.2213
    MIXING:  cpu time      0.0011: real time      0.0011
    --------------------------------------------
      LOOP:  cpu time      2.6533: real time      2.6539

 eigenvalue-minimisations  :  7712
 total energy-change (2. order) :-0.3636177E-02  (-0.3635907E-02)
 number of electron      56.0000002 magnetization       0.0990615
 augmentation part       16.7482442 magnetization      -0.0586187

 Broyden mixing:
  rms(total) = 0.27914E+01    rms(broyden)= 0.27896E+01
  rms(prec ) = 0.52886E+01
  weight for this iteration     100.00

 Free energy of the ion-electron system (eV)
  ---------------------------------------------------
  alpha Z        PSCENC =       302.45619847
  Ewald energy   TEWEN  =     -5214.09126118
  -Hartree energ DENC   =     -1860.07067583
  -exchange      EXHF   =         0.00000000
  -V(xc)+E(xc)   XCENC  =       277.13147772
  PAW double counting   =      5901.46612542    -5850.99266113
  entropy T*S    EENTRO =        -0.00410329
  eigenvalues    EBANDS =      -568.93195894
  atomic energy  EATOM  =      6972.12061185
  Solvation  Ediel_sol  =         0.00000000
  ---------------------------------------------------
  free energy    TOTEN  =       -40.91624691 eV

  energy without entropy =      -40.91214362  energy(sigma->0) =      -40.91419526


--------------------------------------------------------------------------------------------------------




--------------------------------------- Iteration      1(   6)  ---------------------------------------


    POTLOK:  cpu time      0.0323: real time      0.0324
    SETDIJ:  cpu time      0.5714: real time      0.5715
     EDDAV:  cpu time      2.4272: real time      2.4275
       DOS:  cpu time      0.0006: real time      0.0006
    CHARGE:  cpu time      0.2264: real time      0.2264
    MIXING:  cpu time      0.0010: real time      0.0010
    --------------------------------------------
      LOOP:  cpu time      3.2589: real time      3.2593

 eigenvalue-minimisations  :  7716
 total energy-change (2. order) : 0.5355363E+01  (-0.5007223E+01)
 number of electron      56.0000001 magnetization      -0.2947734
 augmentation part       18.3405405 magnetization       0.0213516

 Broyden mixing:
  rms(total) = 0.15385E+01    rms(broyden)= 0.15373E+01
  rms(prec ) = 0.33097E+01
  weight for this iteration     100.00

 eigenvalues of (default mixing * dielectric matrix)
  average eigenvalue GAMMA=   0.7351
  0.7351

 Free energy of the ion-electron system (eV)
  ---------------------------------------------------
  alpha Z        PSCENC =       302.45619847
  Ewald energy   TEWEN  =     -5214.09126118
  -Hartree energ DENC   =     -1783.77608635
  -exchange      EXHF   =         0.00000000
  -V(xc)+E(xc)   XCENC  =       276.09349578
  PAW double counting   =      6083.71120502    -6047.39506243
  entropy T*S    EENTRO =        -0.00904202
  eigenvalues    EBANDS =      -624.67094341
  atomic energy  EATOM  =      6972.12061185
  Solvation  Ediel_sol  =         0.00000000
  ---------------------------------------------------
  free energy    TOTEN  =       -35.56088426 eV

  energy without entropy =      -35.55184224  energy(sigma->0) =      -35.55636325


--------------------------------------------------------------------------------------------------------




--------------------------------------- Iteration      1(   7)  ---------------------------------------


    POTLOK:  cpu time      0.0324: real time      0.0324
    SETDIJ:  cpu time      0.5664: real time      0.5664
     EDDAV:  cpu time      2.3899: real time      2.3903
       DOS:  cpu time      0.0005: real time      0.0005
    CHARGE:  cpu time      0.2205: real time      0.2205
    MIXING:  cpu time      0.0010: real time      0.0010
    --------------------------------------------
      LOOP:  cpu time      3.2106: real time      3.2112

 eigenvalue-minimisations  :  7560
 total energy-change (2. order) : 0.3305926E+01  (-0.1518981E+01)
 number of electron      56.0000002 magnetization      -0.3481815
 augmentation part       17.3921582 magnetization      -0.1847500

 Broyden mixing:
  rms(total) = 0.54137E+00    rms(broyden)= 0.54071E+00
  rms(prec ) = 0.84828E+00
  weight for this iteration     100.00

 eigenvalues of (default mixing * dielectric matrix)
  average eigenvalue GAMMA=   0.7268
  0.9205  0.5331

 Free energy of the ion-electron system (eV)
  ---------------------------------------------------
  alpha Z        PSCENC =       302.45619847
  Ewald energy   TEWEN  =     -5214.09126118
  -Hartree energ DENC   =     -1818.93976944
  -exchange      EXHF   =         0.00000000
  -V(xc)+E(xc)   XCENC  =       276.52529389
  PAW double counting   =      6269.91746230    -6231.29458637
  entropy T*S    EENTRO =        -0.00528854
  eigenvalues    EBANDS =      -588.94361943
  atomic energy  EATOM  =      6972.12061185
  Solvation  Ediel_sol  =         0.00000000
  ---------------------------------------------------
  free energy    TOTEN  =       -32.25495845 eV

  energy without entropy =      -32.24966991  energy(sigma->0) =      -32.25231418


--------------------------------------------------------------------------------------------------------




--------------------------------------- Iteration      1(   8)  ---------------------------------------


    POTLOK:  cpu time      0.0321: real time      0.0321
    SETDIJ:  cpu time      0.5687: real time      0.5687
     EDDAV:  cpu time      2.4102: real time      2.4108
       DOS:  cpu time      0.0005: real time      0.0005
    CHARGE:  cpu time      0.2198: real time      0.2198
    MIXING:  cpu time      0.0010: real time      0.0010
    --------------------------------------------
      LOOP:  cpu time      3.2322: real time      3.2330

 eigenvalue-minimisations  :  7628
 total energy-change (2. order) : 0.6408999E-01  (-0.1247463E+00)
 number of electron      56.0000002 magnetization      -0.3005116
 augmentation part       17.5197129 magnetization      -0.1263669

 Broyden mixing:
  rms(total) = 0.29802E+00    rms(broyden)= 0.29800E+00
  rms(prec ) = 0.41179E+00
  weight for this iteration     100.00

 eigenvalues of (default mixing * dielectric matrix)
  average eigenvalue GAMMA=   1.0478
  0.5597  0.8663  1.7174

 Free energy of the ion-electron system (eV)
  ---------------------------------------------------
  alpha Z        PSCENC =       302.45619847
  Ewald energy   TEWEN  =     -5214.09126118
  -Hartree energ DENC   =     -1807.58301157
  -exchange      EXHF   =         0.00000000
  -V(xc)+E(xc)   XCENC  =       276.13766948
  PAW double counting   =      6398.80234026    -6362.47455258
  entropy T*S    EENTRO =        -0.00512117
  eigenvalues    EBANDS =      -597.55374202
  atomic energy  EATOM  =      6972.12061185
  Solvation  Ediel_sol  =         0.00000000
  ---------------------------------------------------
  free energy    TOTEN  =       -32.19086845 eV

  energy without entropy =      -32.18574729  energy(sigma->0) =      -32.18830787


--------------------------------------------------------------------------------------------------------




--------------------------------------- Iteration      1(   9)  ---------------------------------------


    POTLOK:  cpu time      0.0319: real time      0.0320
    SETDIJ:  cpu time      0.5688: real time      0.5689
     EDDAV:  cpu time      2.4421: real time      2.4425
       DOS:  cpu time      0.0005: real time      0.0005
    CHARGE:  cpu time      0.2204: real time      0.2205
    MIXING:  cpu time      0.0014: real time      0.0014
    --------------------------------------------
      LOOP:  cpu time      3.2651: real time      3.2658

 eigenvalue-minimisations  :  7844
 total energy-change (2. order) : 0.2061889E-01  (-0.1246499E-01)
 number of electron      56.0000002 magnetization      -0.2872666
 augmentation part       17.5939264 magnetization      -0.1104331

 Broyden mixing:
  rms(total) = 0.83760E-01    rms(broyden)= 0.83714E-01
  rms(prec ) = 0.15076E+00
  weight for this iteration     100.00

 eigenvalues of (default mixing * dielectric matrix)
  average eigenvalue GAMMA=   1.1359
  2.3636  0.8647  0.5805  0.7349

 Free energy of the ion-electron system (eV)
  ---------------------------------------------------
  alpha Z        PSCENC =       302.45619847
  Ewald energy   TEWEN  =     -5214.09126118
  -Hartree energ DENC   =     -1801.41501807
  -exchange      EXHF   =         0.00000000
  -V(xc)+E(xc)   XCENC  =       276.05301888
  PAW double counting   =      6597.67647834    -6563.60556615
  entropy T*S    EENTRO =        -0.00561204
  eigenvalues    EBANDS =      -601.35909966
  atomic energy  EATOM  =      6972.12061185
  Solvation  Ediel_sol  =         0.00000000
  ---------------------------------------------------
  free energy    TOTEN  =       -32.17024956 eV

  energy without entropy =      -32.16463752  energy(sigma->0) =      -32.16744354


--------------------------------------------------------------------------------------------------------




--------------------------------------- Iteration      1(  10)  ---------------------------------------


    POTLOK:  cpu time      0.0323: real time      0.0324
    SETDIJ:  cpu time      0.5701: real time      0.5702
     EDDAV:  cpu time      2.3977: real time      2.4100
       DOS:  cpu time      0.0006: real time      0.0006
    CHARGE:  cpu time      0.2213: real time      0.2213
    MIXING:  cpu time      0.0012: real time      0.0012
    --------------------------------------------
      LOOP:  cpu time      3.2233: real time      3.2357

 eigenvalue-minimisations  :  7628
 total energy-change (2. order) : 0.2667694E-02  (-0.1705185E-02)
 number of electron      56.0000002 magnetization      -0.2961057
 augmentation part       17.5660308 magnetization      -0.1194865

 Broyden mixing:
  rms(total) = 0.27703E-01    rms(broyden)= 0.27697E-01
  rms(prec ) = 0.43168E-01
  weight for this iteration     100.00

 eigenvalues of (default mixing * dielectric matrix)
  average eigenvalue GAMMA=   1.1211
  2.5323  0.9388  0.9388  0.6190  0.5766

 Free energy of the ion-electron system (eV)
  ---------------------------------------------------
  alpha Z        PSCENC =       302.45619847
  Ewald energy   TEWEN  =     -5214.09126118
  -Hartree energ DENC   =     -1802.27790834
  -exchange      EXHF   =         0.00000000
  -V(xc)+E(xc)   XCENC  =       276.07435578
  PAW double counting   =      6646.91567310    -6612.97576940
  entropy T*S    EENTRO =        -0.00540492
  eigenvalues    EBANDS =      -600.38407722
  atomic energy  EATOM  =      6972.12061185
  Solvation  Ediel_sol  =         0.00000000
  ---------------------------------------------------
  free energy    TOTEN  =       -32.16758187 eV

  energy without entropy =      -32.16217695  energy(sigma->0) =      -32.16487941


--------------------------------------------------------------------------------------------------------




--------------------------------------- Iteration      1(  11)  ---------------------------------------


    POTLOK:  cpu time      0.0323: real time      0.0323
    SETDIJ:  cpu time      0.5698: real time      0.5698
     EDDAV:  cpu time      2.4124: real time      2.4127
       DOS:  cpu time      0.0006: real time      0.0006
    CHARGE:  cpu time      0.2209: real time      0.2210
    MIXING:  cpu time      0.0013: real time      0.0013
    --------------------------------------------
      LOOP:  cpu time      3.2372: real time      3.2377

 eigenvalue-minimisations  :  7668
 total energy-change (2. order) :-0.4702927E-04  (-0.1981118E-03)
 number of electron      56.0000002 magnetization      -0.3136610
 augmentation part       17.5601006 magnetization      -0.1326585

 Broyden mixing:
  rms(total) = 0.11834E-01    rms(broyden)= 0.11827E-01
  rms(prec ) = 0.18002E-01
  weight for this iteration     100.00

 eigenvalues of (default mixing * dielectric matrix)
  average eigenvalue GAMMA=   1.0873
  2.5066  1.0557  1.0557  0.5634  0.6713  0.6713

 Free energy of the ion-electron system (eV)
  ---------------------------------------------------
  alpha Z        PSCENC =       302.45619847
  Ewald energy   TEWEN  =     -5214.09126118
  -Hartree energ DENC   =     -1802.81651206
  -exchange      EXHF   =         0.00000000
  -V(xc)+E(xc)   XCENC  =       276.08806705
  PAW double counting   =      6651.25675004    -6617.21223177
  entropy T*S    EENTRO =        -0.00527026
  eigenvalues    EBANDS =      -599.96398104
  atomic energy  EATOM  =      6972.12061185
  Solvation  Ediel_sol  =         0.00000000
  ---------------------------------------------------
  free energy    TOTEN  =       -32.16762890 eV

  energy without entropy =      -32.16235864  energy(sigma->0) =      -32.16499377


--------------------------------------------------------------------------------------------------------




--------------------------------------- Iteration      1(  12)  ---------------------------------------


    POTLOK:  cpu time      0.0320: real time      0.0321
    SETDIJ:  cpu time      0.5662: real time      0.5662
     EDDAV:  cpu time      2.4307: real time      2.4311
       DOS:  cpu time      0.0005: real time      0.0005
    CHARGE:  cpu time      0.2219: real time      0.2219
    MIXING:  cpu time      0.0012: real time      0.0012
    --------------------------------------------
      LOOP:  cpu time      3.2525: real time      3.2530

 eigenvalue-minimisations  :  7744
 total energy-change (2. order) : 0.4351559E-04  (-0.2183311E-04)
 number of electron      56.0000002 magnetization      -0.3239330
 augmentation part       17.5589483 magnetization      -0.1357478

 Broyden mixing:
  rms(total) = 0.52349E-02    rms(broyden)= 0.52235E-02
  rms(prec ) = 0.72849E-02
  weight for this iteration     100.00

 eigenvalues of (default mixing * dielectric matrix)
  average eigenvalue GAMMA=   1.2129
  2.5032  2.0288  1.1134  0.8467  0.7823  0.5674  0.6486

 Free energy of the ion-electron system (eV)
  ---------------------------------------------------
  alpha Z        PSCENC =       302.45619847
  Ewald energy   TEWEN  =     -5214.09126118
  -Hartree energ DENC   =     -1803.40968031
  -exchange      EXHF   =         0.00000000
  -V(xc)+E(xc)   XCENC  =       276.11142495
  PAW double counting   =      6651.31835435    -6617.12150220
  entropy T*S    EENTRO =        -0.00511669
  eigenvalues    EBANDS =      -599.54661463
  atomic energy  EATOM  =      6972.12061185
  Solvation  Ediel_sol  =         0.00000000
  ---------------------------------------------------
  free energy    TOTEN  =       -32.16758538 eV

  energy without entropy =      -32.16246869  energy(sigma->0) =      -32.16502704


--------------------------------------------------------------------------------------------------------




--------------------------------------- Iteration      1(  13)  ---------------------------------------


    POTLOK:  cpu time      0.0322: real time      0.0323
    SETDIJ:  cpu time      0.5685: real time      0.5685
     EDDAV:  cpu time      2.4301: real time      2.4307
       DOS:  cpu time      0.0005: real time      0.0005
    CHARGE:  cpu time      0.2216: real time      0.2216
    MIXING:  cpu time      0.0012: real time      0.0012
    --------------------------------------------
      LOOP:  cpu time      3.2541: real time      3.2549

 eigenvalue-minimisations  :  7712
 total energy-change (2. order) :-0.1489251E-04  (-0.7825074E-05)
 number of electron      56.0000002 magnetization      -0.3246472
 augmentation part       17.5589957 magnetization      -0.1331211

 Broyden mixing:
  rms(total) = 0.12561E-02    rms(broyden)= 0.12351E-02
  rms(prec ) = 0.15179E-02
  weight for this iteration     100.00

 eigenvalues of (default mixing * dielectric matrix)
  average eigenvalue GAMMA=   1.2196
  2.6808  2.2871  1.0771  0.9445  0.8206  0.7443  0.5662  0.6364

 Free energy of the ion-electron system (eV)
  ---------------------------------------------------
  alpha Z        PSCENC =       302.45619847
  Ewald energy   TEWEN  =     -5214.09126118
  -Hartree energ DENC   =     -1803.65967706
  -exchange      EXHF   =         0.00000000
  -V(xc)+E(xc)   XCENC  =       276.12330343
  PAW double counting   =      6652.99645565    -6618.73886997
  entropy T*S    EENTRO =        -0.00504942
  eigenvalues    EBANDS =      -599.36931205
  atomic energy  EATOM  =      6972.12061185
  Solvation  Ediel_sol  =         0.00000000
  ---------------------------------------------------
  free energy    TOTEN  =       -32.16760027 eV

  energy without entropy =      -32.16255085  energy(sigma->0) =      -32.16507556


--------------------------------------------------------------------------------------------------------




--------------------------------------- Iteration      1(  14)  ---------------------------------------


    POTLOK:  cpu time      0.0322: real time      0.0323
    SETDIJ:  cpu time      0.5690: real time      0.5691
     EDDAV:  cpu time      2.1585: real time      2.1587
       DOS:  cpu time      0.0005: real time      0.0005
    CHARGE:  cpu time      0.2226: real time      0.2227
    MIXING:  cpu time      0.0014: real time      0.0014
    --------------------------------------------
      LOOP:  cpu time      2.9842: real time      2.9846

 eigenvalue-minimisations  :  6384
 total energy-change (2. order) :-0.2345671E-05  (-0.3059160E-06)
 number of electron      56.0000002 magnetization      -0.3254014
 augmentation part       17.5589538 magnetization      -0.1333575

 Broyden mixing:
  rms(total) = 0.48900E-03    rms(broyden)= 0.48305E-03
  rms(prec ) = 0.68826E-03
  weight for this iteration     100.00

 eigenvalues of (default mixing * dielectric matrix)
  average eigenvalue GAMMA=   1.2096
  2.7224  2.3334  1.0775  1.0775  0.9684  0.5668  0.7555  0.7555  0.6298

 Free energy of the ion-electron system (eV)
  ---------------------------------------------------
  alpha Z        PSCENC =       302.45619847
  Ewald energy   TEWEN  =     -5214.09126118
  -Hartree energ DENC   =     -1803.67257694
  -exchange      EXHF   =         0.00000000
  -V(xc)+E(xc)   XCENC  =       276.12365299
  PAW double counting   =      6653.03836875    -6618.77453007
  entropy T*S    EENTRO =        -0.00504135
  eigenvalues    EBANDS =      -599.36302513
  atomic energy  EATOM  =      6972.12061185
  Solvation  Ediel_sol  =         0.00000000
  ---------------------------------------------------
  free energy    TOTEN  =       -32.16760262 eV

  energy without entropy =      -32.16256127  energy(sigma->0) =      -32.16508194


--------------------------------------------------------------------------------------------------------




--------------------------------------- Iteration      1(  15)  ---------------------------------------


    POTLOK:  cpu time      0.0321: real time      0.0322
    SETDIJ:  cpu time      0.5664: real time      0.5665
     EDDAV:  cpu time      1.7652: real time      1.7654
       DOS:  cpu time      0.0005: real time      0.0005
    --------------------------------------------
      LOOP:  cpu time      2.3643: real time      2.3646

 eigenvalue-minimisations  :  4536
 total energy-change (2. order) : 0.2404586E-06  (-0.7626230E-07)
 number of electron      56.0000002 magnetization      -0.3254014
 augmentation part       17.5589538 magnetization      -0.1333575

 Free energy of the ion-electron system (eV)
  ---------------------------------------------------
  alpha Z        PSCENC =       302.45619847
  Ewald energy   TEWEN  =     -5214.09126118
  -Hartree energ DENC   =     -1803.67157448
  -exchange      EXHF   =         0.00000000
  -V(xc)+E(xc)   XCENC  =       276.12346099
  PAW double counting   =      6652.77374075    -6618.50653427
  entropy T*S    EENTRO =        -0.00503503
  eigenvalues    EBANDS =      -599.36720949
  atomic energy  EATOM  =      6972.12061185
  Solvation  Ediel_sol  =         0.00000000
  ---------------------------------------------------
  free energy    TOTEN  =       -32.16760238 eV

  energy without entropy =      -32.16256735  energy(sigma->0) =      -32.16508486


--------------------------------------------------------------------------------------------------------




 average (electrostatic) potential at core
  the test charge radii are     1.0504  0.7215
  (the norm of the test charge is              1.0000)
       1 -80.5476       2 -80.5476       3 -70.1220       4 -70.1220       5 -70.1220
       6 -70.1220
 
 
 
 E-fermi :   5.4813     XC(G=0): -11.8260     alpha+bet :-12.2345

 val. band max:        5.4742510191   @ k =   0.3333   0.3333   0.1250
 cond. band min:       5.4855457658   @ k =   0.1667   0.1667   0.0000
 fundamental gap:      0.0112947467
 Fermi energy:         5.4812922139

 spin component 1

 k-point     1 :       0.0000    0.0000    0.0000
  band No.  band energies     occupation 
      1     -46.4131      1.00000
      2     -46.4055      1.00000
      3     -46.3063      1.00000
      4     -46.3063      1.00000
      5     -46.1705      1.00000
      6     -46.1705      1.00000
      7     -13.9523      1.00000
      8     -12.8050      1.00000
      9     -12.0198      1.00000
     10     -12.0198      1.00000
     11      -2.7683      1.00000
     12      -2.5510      1.00000
     13      -1.4214      1.00000
     14      -1.4214      1.00000
     15      -0.9802      1.00000
     16       1.7104      1.00000
     17       1.9932      1.00000
     18       1.9932      1.00000
     19       2.1593      1.00000
     20       2.2566      1.00000
     21       2.2566      1.00000
     22       2.4163      1.00000
     23       2.9436      1.00000
     24       3.3018      1.00000
     25       4.1329      1.00000
     26       4.1329      1.00000
     27       4.7037      1.00000
     28       4.8026      1.00000
     29       5.7677      0.00000
     30       8.1759      0.00000
     31       8.1759      0.00000
     32       9.1618      0.00000
     33      11.6872      0.00000
     34      15.5264      0.00000
     35      15.5264      0.00000
     36      18.3833      0.00000

 k-point     2 :       0.1667    0.0000    0.0000
  band No.  band energies     occupation 
      1     -46.4125      1.00000
      2     -46.4059      1.00000
      3     -46.3061      1.00000
      4     -46.3057      1.00000
      5     -46.1708      1.00000
      6     -46.1705      1.00000
      7     -13.8581      1.00000
      8     -12.8129      1.00000
      9     -12.1191      1.00000
     10     -12.0602      1.00000
     11      -2.5885      1.00000
     12      -2.3370      1.00000
     13      -1.4022      1.00000
     14      -1.3944      1.00000
     15      -0.8152      1.00000
     16       1.2655      1.00000
     17       1.3658      1.00000
     18       1.3900      1.00000
     19       1.9412      1.00000
     20       2.1041      1.00000
     21       2.7105      1.00000
     22       2.8417      1.00000
     23       3.2397      1.00000
     24       3.5723      1.00000
     25       3.8337      1.00000
     26       4.0875      1.00000
     27       4.7134      1.00000
     28       5.4114      0.97591
     29       5.6594      0.00000
     30       8.0698      0.00000
     31       8.1013      0.00000
     32       9.0017      0.00000
     33      12.0950      0.00000
     34      15.4885      0.00000
     35      15.6851      0.00000
     36      18.2504      0.00000

 k-point     3 :       0.3333    0.0000    0.0000
  band No.  band energies     occupation 
      1     -46.4107      1.00000
      2     -46.4071      1.00000
      3     -46.3053      1.00000
      4     -46.3053      1.00000
      5     -46.1710      1.00000
      6     -46.1709      1.00000
      7     -13.5978      1.00000
      8     -12.9196      1.00000
      9     -12.2751      1.00000
     10     -12.1620      1.00000
     11      -2.1059      1.00000
     12      -1.8359      1.00000
     13      -1.3586      1.00000
     14      -1.3409      1.00000
     15      -0.3231      1.00000
     16       0.4010      1.00000
     17       0.4577      1.00000
     18       1.1207      1.00000
     19       1.3969      1.00000
     20       1.4617      1.00000
     21       3.2813      1.00000
     22       3.3515      1.00000
     23       3.5451      1.00000
     24       3.6655      1.00000
     25       3.8757      1.00000
     26       4.0811      1.00000
     27       4.6057      1.00000
     28       5.2967      1.00000
     29       6.5774      0.00000
     30       7.8652      0.00000
     31       7.9318      0.00000
     32       8.4940      0.00000
     33      13.0887      0.00000
     34      15.1277      0.00000
     35      16.1906      0.00000
     36      17.7789      0.00000

 k-point     4 :       0.5000    0.0000    0.0000
  band No.  band energies     occupation 
      1     -46.4091      1.00000
      2     -46.4091      1.00000
      3     -46.3051      1.00000
      4     -46.3051      1.00000
      5     -46.1712      1.00000
      6     -46.1712      1.00000
      7     -13.2363      1.00000
      8     -13.2363      1.00000
      9     -12.2681      1.00000
     10     -12.2681      1.00000
     11      -1.6152      1.00000
     12      -1.6152      1.00000
     13      -1.3254      1.00000
     14      -1.3254      1.00000
     15      -0.0576      1.00000
     16      -0.0576      1.00000
     17       0.4727      1.00000
     18       0.4727      1.00000
     19       1.1450      1.00000
     20       1.1450      1.00000
     21       3.4917      1.00000
     22       3.4917      1.00000
     23       3.8089      1.00000
     24       3.8089      1.00000
     25       3.8814      1.00000
     26       3.8814      1.00000
     27       4.8805      1.00000
     28       4.8805      1.00000
     29       7.6542      0.00000
     30       7.6542      0.00000
     31       7.7969      0.00000
     32       7.7969      0.00000
     33      14.2375      0.00000
     34      14.2375      0.00000
     35      16.9846      0.00000
     36      16.9846      0.00000

 k-point     5 :       0.1667    0.1667    0.0000
  band No.  band energies     occupation 
      1     -46.4121      1.00000
      2     -46.4064      1.00000
      3     -46.3064      1.00000
      4     -46.3052      1.00000
      5     -46.1710      1.00000
      6     -46.1706      1.00000
      7     -13.7783      1.00000
      8     -12.8335      1.00000
      9     -12.2167      1.00000
     10     -12.0553      1.00000
     11      -2.6804      1.00000
     12      -1.9317      1.00000
     13      -1.4370      1.00000
     14      -1.3410      1.00000
     15      -0.6606      1.00000
     16       0.4494      1.00000
     17       1.1836      1.00000
     18       1.5902      1.00000
     19       2.2610      1.00000
     20       2.3569      1.00000
     21       2.4409      1.00000
     22       2.5791      1.00000
     23       3.1735      1.00000
     24       3.6134      1.00000
     25       3.7856      1.00000
     26       4.3995      1.00000
     27       4.6502      1.00000
     28       5.6148      0.00008
     29       5.6494      0.00000
     30       7.8954      0.00000
     31       8.1696      0.00000
     32       8.8208      0.00000
     33      12.4835      0.00000
     34      15.5714      0.00000
     35      15.7335      0.00000
     36      18.1289      0.00000

 k-point     6 :       0.3333    0.1667    0.0000
  band No.  band energies     occupation 
      1     -46.4107      1.00000
      2     -46.4075      1.00000
      3     -46.3061      1.00000
      4     -46.3051      1.00000
      5     -46.1713      1.00000
      6     -46.1707      1.00000
      7     -13.5565      1.00000
      8     -12.9664      1.00000
      9     -12.2964      1.00000
     10     -12.1298      1.00000
     11      -2.4804      1.00000
     12      -1.5727      1.00000
     13      -1.4235      1.00000
     14      -1.3246      1.00000
     15      -0.2046      1.00000
     16      -0.0429      1.00000
     17       1.0560      1.00000
     18       1.0993      1.00000
     19       1.7159      1.00000
     20       1.7762      1.00000
     21       2.9583      1.00000
     22       3.0155      1.00000
     23       3.2227      1.00000
     24       3.5695      1.00000
     25       3.8922      1.00000
     26       4.0387      1.00000
     27       4.8598      1.00000
     28       5.4589      0.73702
     29       6.4706      0.00000
     30       7.7922      0.00000
     31       8.0799      0.00000
     32       8.2852      0.00000
     33      13.4222      0.00000
     34      15.3174      0.00000
     35      16.1620      0.00000
     36      17.6851      0.00000

 k-point     7 :       0.5000    0.1667    0.0000
  band No.  band energies     occupation 
      1     -46.4092      1.00000
      2     -46.4092      1.00000
      3     -46.3056      1.00000
      4     -46.3056      1.00000
      5     -46.1711      1.00000
      6     -46.1711      1.00000
      7     -13.2503      1.00000
      8     -13.2503      1.00000
      9     -12.2416      1.00000
     10     -12.2416      1.00000
     11      -1.9853      1.00000
     12      -1.9853      1.00000
     13      -1.3696      1.00000
     14      -1.3696      1.00000
     15       0.2924      1.00000
     16       0.2924      1.00000
     17       0.7611      1.00000
     18       0.7611      1.00000
     19       1.3189      1.00000
     20       1.3189      1.00000
     21       3.2935      1.00000
     22       3.2935      1.00000
     23       3.5968      1.00000
     24       3.5968      1.00000
     25       3.6089      1.00000
     26       3.6089      1.00000
     27       5.1760      1.00000
     28       5.1760      1.00000
     29       7.4502      0.00000
     30       7.4502      0.00000
     31       7.8909      0.00000
     32       7.8909      0.00000
     33      14.4925      0.00000
     34      14.4925      0.00000
     35      16.9287      0.00000
     36      16.9287      0.00000

 k-point     8 :       0.3333    0.3333    0.0000
  band No.  band energies     occupation 
      1     -46.4102      1.00000
      2     -46.4082      1.00000
      3     -46.3065      1.00000
      4     -46.3058      1.00000
      5     -46.1712      1.00000
      6     -46.1704      1.00000
      7     -13.4411      1.00000
      8     -13.1001      1.00000
      9     -12.2680      1.00000
     10     -12.1268      1.00000
     11      -2.6611      1.00000
     12      -1.9755      1.00000
     13      -1.4692      1.00000
     14      -1.3788      1.00000
     15       0.1861      1.00000
     16       0.5121      1.00000
     17       1.1722      1.00000
     18       1.3125      1.00000
     19       2.2704      1.00000
     20       2.2873      1.00000
     21       2.4136      1.00000
     22       2.5154      1.00000
[...]
      2     -46.5150      1.00000
      3     -46.3765      1.00000
      4     -46.3765      1.00000
      5     -46.2163      1.00000
      6     -46.2163      1.00000
      7     -12.7859      1.00000
      8     -12.7859      1.00000
      9     -12.5230      1.00000
     10     -12.5230      1.00000
     11      -1.6094      1.00000
     12      -1.6094      1.00000
     13      -1.1691      1.00000
     14      -1.1691      1.00000
     15       0.3217      1.00000
     16       0.3217      1.00000
     17       0.9082      1.00000
     18       0.9082      1.00000
     19       1.6070      1.00000
     20       1.6070      1.00000
     21       2.5848      1.00000
     22       2.5848      1.00000
     23       2.6105      1.00000
     24       2.6105      1.00000
     25       3.7355      1.00000
     26       3.7355      1.00000
     27       5.1602      1.00000
     28       5.1602      1.00000
     29       5.4371      0.89453
     30       5.4371      0.89453
     31       8.3866      0.00000
     32       8.3866      0.00000
     33      16.6134      0.00000
     34      16.6134      0.00000
     35      17.6780      0.00000
     36      17.6780      0.00000

 k-point    48 :       0.3333    0.3333    0.5000
  band No.  band energies     occupation 
      1     -46.5148      1.00000
      2     -46.5145      1.00000
      3     -46.3767      1.00000
      4     -46.3764      1.00000
      5     -46.2162      1.00000
      6     -46.2162      1.00000
      7     -12.7788      1.00000
      8     -12.7444      1.00000
      9     -12.5575      1.00000
     10     -12.5255      1.00000
     11      -1.5975      1.00000
     12      -1.2716      1.00000
     13      -1.1975      1.00000
     14      -1.0194      1.00000
     15      -0.6280      1.00000
     16       0.4559      1.00000
     17       0.5476      1.00000
     18       0.8849      1.00000
     19       1.4358      1.00000
     20       1.7157      1.00000
     21       2.5765      1.00000
     22       2.6089      1.00000
     23       2.6123      1.00000
     24       3.1269      1.00000
     25       3.7438      1.00000
     26       4.5261      1.00000
     27       4.8229      1.00000
     28       5.1448      1.00000
     29       5.4183      0.96268
     30       6.4628      0.00000
     31       7.2752      0.00000
     32       8.3533      0.00000
     33      16.3609      0.00000
     34      16.8821      0.00000
     35      17.1658      0.00000
     36      18.0907      0.00000

 k-point    49 :       0.5000    0.3333    0.5000
  band No.  band energies     occupation 
      1     -46.5146      1.00000
      2     -46.5146      1.00000
      3     -46.3768      1.00000
      4     -46.3768      1.00000
      5     -46.2163      1.00000
      6     -46.2163      1.00000
      7     -12.7429      1.00000
      8     -12.7429      1.00000
      9     -12.5580      1.00000
     10     -12.5580      1.00000
     11      -1.3653      1.00000
     12      -1.3653      1.00000
     13      -1.1988      1.00000
     14      -1.1988      1.00000
     15      -0.2374      1.00000
     16      -0.2374      1.00000
     17       0.6593      1.00000
     18       0.6593      1.00000
     19       1.6009      1.00000
     20       1.6009      1.00000
     21       2.6157      1.00000
     22       2.6157      1.00000
     23       3.0625      1.00000
     24       3.0625      1.00000
     25       4.1043      1.00000
     26       4.1043      1.00000
     27       5.0954      1.00000
     28       5.0954      1.00000
     29       5.8703      0.00000
     30       5.8703      0.00000
     31       7.8237      0.00000
     32       7.8237      0.00000
     33      16.5356      0.00000
     34      16.5356      0.00000
     35      17.4405      0.00000
     36      17.4405      0.00000

 k-point    50 :       0.5000    0.5000    0.5000
  band No.  band energies     occupation 
      1     -46.5145      1.00000
      2     -46.5145      1.00000
      3     -46.3767      1.00000
      4     -46.3767      1.00000
      5     -46.2161      1.00000
      6     -46.2161      1.00000
      7     -12.7130      1.00000
      8     -12.7130      1.00000
      9     -12.5829      1.00000
     10     -12.5829      1.00000
     11      -1.2367      1.00000
     12      -1.2367      1.00000
     13      -1.0988      1.00000
     14      -1.0988      1.00000
     15      -0.6051      1.00000
     16      -0.6051      1.00000
     17       0.5556      1.00000
     18       0.5556      1.00000
     19       1.6057      1.00000
     20       1.6057      1.00000
     21       2.6209      1.00000
     22       2.6209      1.00000
     23       3.2360      1.00000
     24       3.2360      1.00000
     25       4.5606      1.00000
     26       4.5606      1.00000
     27       4.6717      1.00000
     28       4.6717      1.00000
     29       6.4611      0.00000
     30       6.4611      0.00000
     31       7.2939      0.00000
     32       7.2939      0.00000
     33      16.4054      0.00000
     34      16.4054      0.00000
     35      17.4588      0.00000
     36      17.4588      0.00000


--------------------------------------------------------------------------------------------------------


 soft charge-density along one line, spin component            1
         0         1         2         3         4         5         6         7         8         9
 total charge-density along one line
 
 soft charge-density along one line, spin component            2
         0         1         2         3         4         5         6         7         8         9
 total charge-density along one line
 
 pseudopotential strength for first ion, spin component:            1
-40.500  -0.000   0.033  10.122   0.000  -0.019   0.000   0.000
 -0.000 -40.599  -0.000   0.000  10.177   0.000   0.000   0.000
  0.033  -0.000 -40.500  -0.019   0.000  10.122   0.000   0.000
 10.122   0.000  -0.019   7.361  -0.000   0.005  -0.000  -0.000
  0.000  10.177   0.000  -0.000   7.350  -0.000  -0.000  -0.000
 -0.019   0.000  10.122   0.005  -0.000   7.361  -0.000  -0.000
  0.000   0.000   0.000  -0.000  -0.000  -0.000  -5.081  -0.000
  0.000   0.000   0.000  -0.000  -0.000  -0.000  -0.000  -5.094
 -0.000   0.000  -0.000   0.000  -0.000   0.000  -0.083   0.000
  0.000   0.000   0.000  -0.000  -0.000  -0.000  -0.000  -0.049
 -0.000   0.000   0.000   0.000  -0.000  -0.000   0.000   0.000
  0.000   0.000   0.000  -0.000  -0.000  -0.000  -5.045  -0.000
  0.000   0.000   0.000  -0.000  -0.000  -0.000  -0.000  -5.060
 -0.000   0.000  -0.000   0.000  -0.000   0.000  -0.092   0.000
  0.000   0.000   0.000  -0.000  -0.000  -0.000  -0.000  -0.055
 -0.000   0.000   0.000   0.000  -0.000  -0.000   0.000   0.000
 -0.000  -0.000  -0.000  -0.000  -0.000  -0.000  -0.012   0.000
 -0.000  -0.000  -0.000  -0.000  -0.000  -0.000  -0.025   0.000
 pseudopotential strength for first ion, spin component:            2
-40.536  -0.000   0.038  10.141   0.000  -0.022   0.000   0.000
 -0.000 -40.624  -0.000   0.000  10.190   0.000   0.000   0.000
  0.038  -0.000 -40.536  -0.022   0.000  10.141   0.000   0.000
 10.141   0.000  -0.022   7.356  -0.000   0.005  -0.000  -0.000
  0.000  10.190   0.000  -0.000   7.346  -0.000  -0.000  -0.000
 -0.022   0.000  10.141   0.005  -0.000   7.356  -0.000  -0.000
  0.000   0.000   0.000  -0.000  -0.000  -0.000  -5.099  -0.000
  0.000   0.000   0.000  -0.000  -0.000  -0.000  -0.000  -5.126
 -0.000   0.000  -0.000   0.000  -0.000   0.000  -0.082   0.000
  0.000   0.000   0.000  -0.000  -0.000  -0.000  -0.000  -0.040
 -0.000   0.000   0.000   0.000  -0.000  -0.000  -0.000   0.000
  0.000   0.000   0.000  -0.000  -0.000  -0.000  -5.065  -0.000
  0.000   0.000   0.000  -0.000  -0.000  -0.000  -0.000  -5.095
 -0.000   0.000  -0.000   0.000  -0.000   0.000  -0.091   0.000
  0.000   0.000   0.000  -0.000  -0.000  -0.000  -0.000  -0.044
 -0.000   0.000   0.000   0.000  -0.000  -0.000  -0.000   0.000
 -0.000  -0.000  -0.000  -0.000  -0.000  -0.000  -0.015   0.000
 -0.000  -0.000  -0.000  -0.000  -0.000  -0.000  -0.029   0.000
 total augmentation occupancy for first ion, spin component:            1
  1.995   0.000   0.000  -0.035  -0.000   0.001   0.000   0.000   0.000   0.000   0.000   0.000   0.000   0.000   0.000   0.000
  0.000   1.995   0.000  -0.000  -0.035  -0.000   0.000   0.000   0.000   0.000   0.000   0.000   0.000   0.000   0.000   0.000
  0.000   0.000   1.995   0.001  -0.000  -0.035   0.000   0.000   0.000   0.000   0.000   0.000   0.000   0.000   0.000   0.000
 -0.035  -0.000   0.001   0.173   0.000  -0.019   0.000   0.000   0.000   0.000   0.000   0.000   0.000   0.000   0.000   0.000
 -0.000  -0.035  -0.000   0.000   0.203   0.000   0.000   0.000   0.000   0.000   0.000   0.000   0.000   0.000   0.000   0.000
  0.001  -0.000  -0.035  -0.019   0.000   0.173   0.000   0.000   0.000   0.000   0.000   0.000   0.000   0.000   0.000   0.000
  0.000   0.000   0.000   0.000   0.000   0.000   3.971   0.000   1.497   0.000   0.000  -1.955  -0.000  -1.209  -0.000  -0.000
  0.000   0.000   0.000   0.000   0.000   0.000   0.000   3.510   0.000   1.270  -0.000  -0.000  -1.654  -0.000  -0.996   0.000
  0.000   0.000   0.000   0.000   0.000   0.000   1.497   0.000   3.291   0.000   0.000  -1.181  -0.000  -1.444  -0.000  -0.000
  0.000   0.000   0.000   0.000   0.000   0.000   0.000   1.270   0.000   3.510   0.000  -0.000  -0.996  -0.000  -1.654  -0.000
  0.000   0.000   0.000   0.000   0.000   0.000   0.000  -0.000   0.000   0.000   2.104  -0.000   0.000  -0.000  -0.000  -0.592
  0.000   0.000   0.000   0.000   0.000   0.000  -1.955  -0.000  -1.181  -0.000  -0.000   1.470   0.000   0.593   0.000   0.000
  0.000   0.000   0.000   0.000   0.000   0.000  -0.000  -1.654  -0.000  -0.996   0.000   0.000   1.432   0.000   0.423  -0.000
  0.000   0.000   0.000   0.000   0.000   0.000  -1.209  -0.000  -1.444  -0.000  -0.000   0.593   0.000   1.359   0.000   0.000
  0.000   0.000   0.000   0.000   0.000   0.000  -0.000  -0.996  -0.000  -1.654  -0.000   0.000   0.423   0.000   1.432   0.000
  0.000   0.000   0.000   0.000   0.000   0.000  -0.000   0.000  -0.000  -0.000  -0.592   0.000  -0.000   0.000   0.000   1.034
  0.000   0.000   0.000   0.000   0.000   0.000  -0.207  -0.000   0.218  -0.000  -0.000   0.256   0.000  -0.298   0.000   0.000
  0.000   0.000   0.000   0.000   0.000   0.000   0.022   0.000  -0.013   0.000   0.000  -0.033  -0.000   0.036  -0.000  -0.000
 total augmentation occupancy for first ion, spin component:            2
 -0.000   0.000   0.000   0.000   0.000   0.000   0.000   0.000   0.000   0.000   0.000   0.000   0.000   0.000   0.000   0.000
  0.000   0.000   0.000   0.000   0.000   0.000   0.000   0.000   0.000   0.000   0.000   0.000   0.000   0.000   0.000   0.000
  0.000   0.000  -0.000   0.000   0.000   0.000   0.000   0.000   0.000   0.000   0.000   0.000   0.000   0.000   0.000   0.000
  0.000   0.000   0.000   0.000   0.000  -0.000   0.000   0.000   0.000   0.000   0.000   0.000   0.000   0.000   0.000   0.000
  0.000   0.000   0.000   0.000   0.000   0.000   0.000   0.000   0.000   0.000   0.000   0.000   0.000   0.000   0.000   0.000
  0.000   0.000   0.000  -0.000   0.000   0.000   0.000   0.000   0.000   0.000   0.000   0.000   0.000   0.000   0.000   0.000
  0.000   0.000   0.000   0.000   0.000   0.000   0.007   0.000   0.002   0.000   0.000  -0.005  -0.000  -0.002  -0.000  -0.000
  0.000   0.000   0.000   0.000   0.000   0.000   0.000   0.007   0.000   0.003  -0.000  -0.000   0.005  -0.000  -0.011  -0.000
  0.000   0.000   0.000   0.000   0.000   0.000   0.002   0.000   0.007   0.000   0.000  -0.002  -0.000  -0.004  -0.000  -0.000
  0.000   0.000   0.000   0.000   0.000   0.000   0.000   0.003   0.000   0.007   0.000  -0.000  -0.011  -0.000   0.005   0.000
  0.000   0.000   0.000   0.000   0.000   0.000   0.000  -0.000   0.000   0.000   0.005  -0.000  -0.000  -0.000   0.000   0.020
  0.000   0.000   0.000   0.000   0.000   0.000  -0.005  -0.000  -0.002  -0.000  -0.000   0.002   0.000   0.002   0.000   0.000
  0.000   0.000   0.000   0.000   0.000   0.000  -0.000   0.005  -0.000  -0.011  -0.000   0.000  -0.030   0.000   0.031   0.000
  0.000   0.000   0.000   0.000   0.000   0.000  -0.002  -0.000  -0.004  -0.000  -0.000   0.002   0.000   0.001   0.000   0.000
  0.000   0.000   0.000   0.000   0.000   0.000  -0.000  -0.011  -0.000   0.005   0.000   0.000   0.031   0.000  -0.030  -0.000
  0.000   0.000   0.000   0.000   0.000   0.000  -0.000  -0.000  -0.000   0.000   0.020   0.000   0.000   0.000  -0.000  -0.082
  0.000   0.000   0.000   0.000   0.000   0.000  -0.003  -0.000  -0.003  -0.000  -0.000   0.002   0.000   0.000   0.000   0.000
  0.000   0.000   0.000   0.000   0.000   0.000   0.002   0.000   0.002   0.000   0.000  -0.001  -0.000  -0.000  -0.000  -0.000


------------------------ aborting loop because EDIFF is reached ----------------------------------------





 total charge

# of ion       s       p       d       tot
------------------------------------------
    1        0.334   6.324   7.655  14.313
    2        0.334   6.324   7.655  14.313
    3        1.600   3.388   0.000   4.988
    4        1.600   3.388   0.000   4.988
    5        1.600   3.388   0.000   4.988
    6        1.600   3.388   0.000   4.988
--------------------------------------------------
tot          7.068  26.198  15.310  48.577



 magnetization (x)

# of ion       s       p       d       tot
------------------------------------------
    1        0.000   0.001  -0.066  -0.065
    2        0.000   0.001  -0.066  -0.065
    3       -0.001  -0.041   0.000  -0.042
    4       -0.001  -0.041   0.000  -0.042
    5       -0.001  -0.041   0.000  -0.042
    6       -0.001  -0.041   0.000  -0.042
--------------------------------------------------
tot         -0.002  -0.162  -0.133  -0.297
 
    CHARGE:  cpu time      0.2225: real time      0.2225
    FORLOC:  cpu time      0.0011: real time      0.0011
    FORNL :  cpu time      0.4123: real time      0.4123
    FORCOR:  cpu time      0.5998: real time      0.5998
    FORHAR:  cpu time      0.0040: real time      0.0040
    MIXING:  cpu time      0.0012: real time      0.0012
    OFIELD:  cpu time      0.0000: real time      0.0000

 ---------------------------------------------------------------------------------------------

         DFTD3 V3.0 Rev 1        
 DF pbe       
 parameters
 k1-k3        =   16.0000    1.3333   -4.0000
 Edisp (eV)   -1.41402

 E6    (eV) :    -0.8848
 E8    (eV) :    -0.5293
 % E8        : 37.43
    FORVDW:  cpu time      0.0130: real time      0.0130

 VOLUME and BASIS-vectors are now :
 -----------------------------------------------------------------------------
  energy-cutoff  :      400.00
  volume of cell :       64.34
      direct lattice vectors                 reciprocal lattice vectors
     4.522230460  0.000000000  0.000000000     0.221129818 -0.000000000  0.000000000
     0.000000000  4.522230460  0.000000000     0.000000000  0.221129818  0.000000000
     0.000000000  0.000000000  3.146273630    -0.000000000 -0.000000000  0.317836310

  length of vectors
     4.522230460  4.522230460  3.146273630     0.221129818  0.221129818  0.317836310


 FORCES acting on ions
    electron-ion (+dipol)            ewald-force                    non-local-force                 convergence-correction
 -----------------------------------------------------------------------------------------------
   -.180E-11 0.671E-11 0.178E-11   0.284E-13 0.000E+00 0.158E-13   0.117E-23 0.000E+00 0.000E+00   0.936E-13 -.482E-13 -.780E-13
   0.559E-14 0.155E-13 -.124E-11   0.284E-13 0.114E-12 -.100E-13   -.105E-23 0.000E+00 0.000E+00   -.555E-14 0.419E-13 -.228E-13
   0.374E+02 -.374E+02 0.461E-11   -.386E+02 0.386E+02 0.163E-13   0.119E+01 -.119E+01 -.416E-16   0.340E-04 -.340E-04 -.618E-13
   -.374E+02 0.374E+02 0.168E-11   0.386E+02 -.386E+02 -.574E-14   -.119E+01 0.119E+01 0.416E-16   -.340E-04 0.340E-04 0.382E-13
   0.374E+02 0.374E+02 0.166E-07   -.386E+02 -.386E+02 0.191E-12   0.119E+01 0.119E+01 0.971E-16   0.340E-04 0.340E-04 -.333E-11
   -.374E+02 -.374E+02 -.166E-07   0.386E+02 0.386E+02 -.209E-12   -.119E+01 -.119E+01 -.971E-16   -.340E-04 -.340E-04 0.332E-11
 -----------------------------------------------------------------------------------------------
   0.363E-12 0.106E-10 -.401E-12   -.711E-14 0.355E-13 -.172E-14   0.222E-15 0.000E+00 0.000E+00   0.837E-13 -.328E-13 -.137E-12
 
 
 POSITION                                       TOTAL-FORCE (eV/Angst)
 -----------------------------------------------------------------------------------
      2.26112      2.26112      1.57314        -0.000000      0.000000     -0.000000
      0.00000      0.00000      0.00000        -0.000000      0.000000     -0.000000
      3.65465      0.86758      1.57314        -0.068338      0.068338     -0.000000
      0.86758      3.65465      1.57314         0.068338     -0.068338      0.000000
      1.39353      1.39353      0.00000        -0.068338     -0.068338     -0.000000
      3.12870      3.12870      0.00000         0.068338      0.068338      0.000000
 -----------------------------------------------------------------------------------
    total drift:                                0.000000      0.000000     -0.000000


--------------------------------------------------------------------------------------------------------



  FREE ENERGIE OF THE ION-ELECTRON SYSTEM (eV)
  ---------------------------------------------------
  free  energy   TOTEN  =       -33.58162181 eV

  energy  without entropy=      -33.57658679  energy(sigma->0) =      -33.57910430
 


--------------------------------------------------------------------------------------------------------


    POTLOK:  cpu time      0.6027: real time      0.6027


--------------------------------------------------------------------------------------------------------


     LOOP+:  cpu time     47.2342: real time     47.6787
    4ORBIT:  cpu time      0.0000: real time      0.0000



 total charge

# of ion       s       p       d       tot
------------------------------------------
    1        0.334   6.324   7.655  14.313
    2        0.334   6.324   7.655  14.313
    3        1.600   3.388   0.000   4.988
    4        1.600   3.388   0.000   4.988
    5        1.600   3.388   0.000   4.988
    6        1.600   3.388   0.000   4.988
--------------------------------------------------
tot          7.068  26.198  15.310  48.577



 magnetization (x)

# of ion       s       p       d       tot
------------------------------------------
    1        0.000   0.001  -0.066  -0.065
    2        0.000   0.001  -0.066  -0.065
    3       -0.001  -0.041   0.000  -0.042
    4       -0.001  -0.041   0.000  -0.042
    5       -0.001  -0.041   0.000  -0.042
    6       -0.001  -0.041   0.000  -0.042
--------------------------------------------------
tot         -0.002  -0.162  -0.133  -0.297
 

 total amount of memory used by VASP MPI-rank0    77580. kBytes
=======================================================================

   base      :      30000. kBytes
   nonl-proj :      17337. kBytes
   fftplans  :       6528. kBytes
   grid      :       5328. kBytes
   one-center:        186. kBytes
   wavefun   :      18201. kBytes
 
  
  
 General timing and accounting informations for this job:
 ========================================================
  
                  Total CPU time used (sec):       48.303
                            User time (sec):       47.497
                          System time (sec):        0.806
                         Elapsed time (sec):       48.724
  
                   Maximum memory used (kb):      358844.
                   Average memory used (kb):          N/A
  
                          Minor page faults:       285193
                          Major page faults:            5
                 Voluntary context switches:          164
