       N       E                     dE             d eps       ncg     rms          rms(c)
DAV:   1     0.602510035942E+03    0.60251E+03   -0.35278E+04  7376   0.179E+03
DAV:   2    -0.665202541831E+01   -0.60916E+03   -0.58693E+03  8424   0.501E+02
DAV:   3    -0.405481258044E+02   -0.33896E+02   -0.33527E+02  7864   0.122E+02
DAV:   4    -0.409895754726E+02   -0.44145E+00   -0.44085E+00  7900   0.150E+01
DAV:   5    -0.409945245965E+02   -0.49491E-02   -0.49486E-02  7768   0.161E+00    0.281E+01
DAV:   6    -0.356429329872E+02    0.53516E+01   -0.51609E+01  7728   0.655E+01    0.156E+01
DAV:   7    -0.321958692457E+02    0.34471E+01   -0.15747E+01  7552   0.360E+01    0.540E+00
DAV:   8    -0.321434611498E+02    0.52408E-01   -0.12732E+00  7644   0.666E+00    0.302E+00
DAV:   9    -0.321157265572E+02    0.27735E-01   -0.13083E-01  7820   0.326E+00    0.848E-01
DAV:  10    -0.321125042290E+02    0.32223E-02   -0.18033E-02  7680   0.129E+00    0.274E-01
DAV:  11    -0.321125204916E+02   -0.16263E-04   -0.20239E-03  7644   0.364E-01    0.119E-01
DAV:  12    -0.321124802580E+02    0.40234E-04   -0.21935E-04  7784   0.971E-02    0.524E-02
DAV:  13    -0.321124960957E+02   -0.15838E-04   -0.79741E-05  7664   0.533E-02    0.125E-02
DAV:  14    -0.321124976327E+02   -0.15370E-05   -0.27682E-06  6104   0.127E-02    0.482E-03
DAV:  15    -0.321124972821E+02    0.35057E-06   -0.75005E-07  4516   0.719E-03
   1 F= -.33526517E+02 E0= -.33524005E+02  d E =-.502368E-02  mag=    -0.3281
