 vasp.6.4.3 19Mar24 (build Nov 27 2025 15:18:09) complex                         
 executed on              LinuxNV date 2026.06.04  16:45:12
 running    4 mpi-ranks, with    1 threads/rank, on    1 nodes
 distrk:  each k-point on    4 cores,    1 groups
 distr:  one band on NCORE=   1 cores,    4 groups
 OpenACC runtime initialized ...    0 GPUs detected


--------------------------------------------------------------------------------------------------------


 INCAR:
   SYSTEM = pddmc
   ENCUT = 550
   PREC = Accurate
   LASPH = .TRUE.
   ADDGRID = .TRUE.
   ISPIN = 2
   IVDW = 12
   EDIFF = 1e-06
   NELM = 200
   NELMIN = 5
   ALGO = Normal
   NCORE = 1
   LREAL = .FALSE.
   LWAVE = .FALSE.
   LCHARG = .FALSE.
   LORBIT = 11
   ISYM = 2
   IBRION = -1
   NSW = 0
   ISIF = 0
   ISMEAR = 0
   SIGMA = 0.05
   EDIFFG = -0.01

 POTCAR:    PAW_PBE Pd_pv 28Jan2005               
 POTCAR:    PAW_PBE O 08Apr2002                   
 -----------------------------------------------------------------------------
|                                                                             |
|           W    W    AA    RRRRR   N    N  II  N    N   GGGG   !!!           |
|           W    W   A  A   R    R  NN   N  II  NN   N  G    G  !!!           |
|           W    W  A    A  R    R  N N  N  II  N N  N  G       !!!           |
|           W WW W  AAAAAA  RRRRR   N  N N  II  N  N N  G  GGG   !            |
|           WW  WW  A    A  R   R   N   NN  II  N   NN  G    G                |
|           W    W  A    A  R    R  N    N  II  N    N   GGGG   !!!           |
|                                                                             |
|     You use a magnetic or noncollinear calculation, but did not specify     |
|     the initial magnetic moment with the MAGMOM tag. Note that a            |
|     default of 1 will be used for all atoms. This ferromagnetic setup       |
|     may break the symmetry of the crystal, in particular it may rule        |
|     out finding an antiferromagnetic solution. Thence, we recommend         |
|     setting the initial magnetic moment manually or verifying carefully     |
|     that this magnetic setup is desired.                                    |
|                                                                             |
 -----------------------------------------------------------------------------

 POTCAR:    PAW_PBE Pd_pv 28Jan2005               
   SHA256 =  3ce661545bbde58da9a95410dea32907db2844916708bcd35bbe03ee66324d7f Pd_pv/POTCAR          
   COPYR  = (c) Copyright 28Jan2005 Georg Kresse                                                    
   COPYR  = This file is part of the software VASP. Any use, copying, and all other rights are regul
   COPYR  = If you do not have a valid VASP license, you may not use, copy or distribute this file. 
   VRHFIN =Pd: 4p5s4d                                                                               
   LEXCH  = PE                                                                                      
   EATOM  =  2621.5550 eV,  192.6789 Ry                                                             
                                                                                                    
   TITEL  = PAW_PBE Pd_pv 28Jan2005                                                                 
   LULTRA =        F    use ultrasoft PP ?                                                          
   IUNSCR =        1    unscreen: 0-lin 1-nonlin 2-no                                               
   RPACOR =    2.250    partial core radius                                                         
   POMASS =  106.420; ZVAL   =   16.000    mass and valenz                                          
   RCORE  =    2.400    outmost cutoff radius                                                       
   RWIGS  =    2.300; RWIGS  =    1.217    wigner-seitz radius (au A)                               
   ENMAX  =  250.925; ENMIN  =  188.194 eV                                                          
   ICORE  =        3    local potential                                                             
   LCOR   =        T    correct aug charges                                                         
   LPAW   =        T    paw PP                                                                      
   EAUG   =  473.067                                                                                
   DEXC   =    0.000                                                                                
   RMAX   =    2.449    core radius for proj-oper                                                   
   RAUG   =    1.300    factor for augmentation sphere                                              
   RDEP   =    2.405    radius for radial grids                                                     
   RDEPT  =    1.966    core radius for aug-charge                                                  
                                                                                                    
   Atomic configuration                                                                             
   11 entries                                                                                       
     n  l   j            E        occ.                                                              
     1  0  0.50    -24164.6632   2.0000                                                             
     2  0  0.50     -3530.9218   2.0000                                                             
     2  1  1.50     -3165.6822   6.0000                                                             
     3  0  0.50      -639.4578   2.0000                                                             
     3  1  1.50      -519.4532   6.0000                                                             
     3  2  2.50      -328.9758  10.0000                                                             
     4  0  0.50       -88.7014   2.0000                                                             
     4  1  1.50       -54.4541   6.0000                                                             
     4  2  2.50        -6.6878   9.0000                                                             
     5  0  0.50        -4.3543   1.0000                                                             
     4  3  2.50        -1.3606   0.0000                                                             
   Description                                                                                      
     l       E           TYP  RCUT    TYP  RCUT                                                     
     1    -54.4540524     23  2.100                                                                 
     1      4.0817478     23  2.100                                                                 
     2     -6.6878326     23  2.400                                                                 
     2     -4.0817478     23  2.400                                                                 
     0     -4.3542962     23  2.400                                                                 
     0     13.6058260     23  2.400                                                                 
     3     -5.4423304     23  2.400                                                                 
  local pseudopotential read in
  partial core-charges read in
  partial kinetic energy density read in
  atomic valenz-charges read in
  non local Contribution for L=            1  read in
    real space projection operators read in
  non local Contribution for L=            1  read in
    real space projection operators read in
  non local Contribution for L=            2  read in
    real space projection operators read in
  non local Contribution for L=            2  read in
    real space projection operators read in
  non local Contribution for L=            0  read in
    real space projection operators read in
  non local Contribution for L=            0  read in
    real space projection operators read in
    PAW grid and wavefunctions read in
 
   number of l-projection  operators is LMAX  =            6
   number of lm-projection operators is LMMAX =           18
 
 POTCAR:    PAW_PBE O 08Apr2002                   
   SHA256 =  818f92134a0a090dccd8ba1447fa70422a3b330e708bb4f08108d8ae51209ddf O/POTCAR              
   COPYR  = (c) Copyright 08Apr2002 Georg Kresse                                                    
   COPYR  = This file is part of the software VASP. Any use, copying, and all other rights are regul
   COPYR  = If you do not have a valid VASP license, you may not use, copy or distribute this file. 
   VRHFIN =O: s2p4                                                                                  
   LEXCH  = PE                                                                                      
   EATOM  =   432.3788 eV,   31.7789 Ry                                                             
                                                                                                    
   TITEL  = PAW_PBE O 08Apr2002                                                                     
   LULTRA =        F    use ultrasoft PP ?                                                          
   IUNSCR =        1    unscreen: 0-lin 1-nonlin 2-no                                               
   RPACOR =    1.200    partial core radius                                                         
   POMASS =   16.000; ZVAL   =    6.000    mass and valenz                                          
   RCORE  =    1.520    outmost cutoff radius                                                       
   RWIGS  =    1.550; RWIGS  =    0.820    wigner-seitz radius (au A)                               
   ENMAX  =  400.000; ENMIN  =  300.000 eV                                                          
   ICORE  =        2    local potential                                                             
   LCOR   =        T    correct aug charges                                                         
   LPAW   =        T    paw PP                                                                      
   EAUG   =  605.392                                                                                
   DEXC   =    0.000                                                                                
   RMAX   =    1.553    core radius for proj-oper                                                   
   RAUG   =    1.300    factor for augmentation sphere                                              
   RDEP   =    1.550    radius for radial grids                                                     
   RDEPT  =    1.329    core radius for aug-charge                                                  
                                                                                                    
   Atomic configuration                                                                             
    4 entries                                                                                       
     n  l   j            E        occ.                                                              
     1  0  0.50      -514.6923   2.0000                                                             
     2  0  0.50       -23.9615   2.0000                                                             
     2  1  0.50        -9.0305   4.0000                                                             
     3  2  1.50        -9.5241   0.0000                                                             
   Description                                                                                      
     l       E           TYP  RCUT    TYP  RCUT                                                     
     0    -23.9615318     23  1.200                                                                 
     0     -9.5240782     23  1.200                                                                 
     1     -9.0304911     23  1.520                                                                 
     1      8.1634956     23  1.520                                                                 
     2     -9.5240782      7  1.500                                                                 
  local pseudopotential read in
  partial core-charges read in
  partial kinetic energy density read in
  kinetic energy density of atom read in
  atomic valenz-charges read in
  non local Contribution for L=            0  read in
    real space projection operators read in
  non local Contribution for L=            0  read in
    real space projection operators read in
  non local Contribution for L=            1  read in
    real space projection operators read in
  non local Contribution for L=            1  read in
    real space projection operators read in
    PAW grid and wavefunctions read in
 
   number of l-projection  operators is LMAX  =            4
   number of lm-projection operators is LMMAX =            8
 
  PAW_PBE Pd_pv 28Jan2005               :
 energy of atom  1       EATOM=-2621.5550
 kinetic energy error for atom=    0.0074 (will be added to EATOM!!)
  PAW_PBE O 08Apr2002                   :
 energy of atom  2       EATOM= -432.3788
 kinetic energy error for atom=    0.0194 (will be added to EATOM!!)
 
 
 POSCAR: Pd O
  positions in cartesian coordinates
  No initial velocities read in
 IVDW         = 12
 VDW_S6       =    1.0000
 VDW_S8       =    0.7875
 VDW_A1       =    0.4289
 VDW_A2       =    4.4407
 VDW_RADIUS   =   50.2022 A
 VDW_CNRADIUS =   21.1671 A


 exchange-correlation table for PE
   RHO(1)=    0.500       N(1)  =     2000
   RHO(2)=  100.500       N(2)  =     4000
 


--------------------------------------------------------------------------------------------------------


 ion  position               nearest neighbor table
   1  0.500  0.500  0.500-   3 1.97   4 1.97   5 2.00   6 2.00   5 2.00   6 2.00
   2  0.000  0.000  0.000-   5 1.97   6 1.97   3 2.00   4 2.00   3 2.00   4 2.00
   3  0.808  0.192  0.500-   1 1.97   2 2.00   2 2.00
   4  0.192  0.808  0.500-   1 1.97   2 2.00   2 2.00
   5  0.308  0.308  0.000-   2 1.97   1 2.00   1 2.00
   6  0.692  0.692  0.000-   2 1.97   1 2.00   1 2.00
 
  LATTYP: Found a simple tetragonal cell.
 ALAT       =     4.5222304600
 C/A-ratio  =     0.6957349162
  
  Lattice vectors:
  
 A1 = (   4.5222304600,   0.0000000000,   0.0000000000)
 A2 = (   0.0000000000,   4.5222304600,   0.0000000000)
 A3 = (   0.0000000000,   0.0000000000,   3.1462736300)


Analysis of symmetry for initial positions (statically):
=====================================================================
 Subroutine PRICEL returns:
 Original cell was already a primitive cell.
 

 Routine SETGRP: Setting up the symmetry group for a 
 simple tetragonal supercell.


 Subroutine GETGRP returns: Found 16 space group operations
 (whereof  8 operations were pure point group operations)
 out of a pool of 16 trial point group operations.


The static configuration has the point symmetry D_2h.
 The point group associated with its full space group is D_4h.


Analysis of symmetry for dynamics (positions and initial velocities):
=====================================================================
 Subroutine PRICEL returns:
 Original cell was already a primitive cell.
 

 Routine SETGRP: Setting up the symmetry group for a 
 simple tetragonal supercell.


 Subroutine GETGRP returns: Found 16 space group operations
 (whereof  8 operations were pure point group operations)
 out of a pool of 16 trial point group operations.


The dynamic configuration has the point symmetry D_2h.
 The point group associated with its full space group is D_4h.


Analysis of structural, dynamic, and magnetic symmetry:
=====================================================================
 Subroutine PRICEL returns:
 Original cell was already a primitive cell.
 

 Routine SETGRP: Setting up the symmetry group for a 
 simple tetragonal supercell.


 Subroutine GETGRP returns: Found 16 space group operations
 (whereof  8 operations were pure point group operations)
 out of a pool of 16 trial point group operations.


The overall configuration has the point symmetry D_2h.
 The point group associated with its full space group is D_4h.


 Subroutine INISYM returns: Found 16 space group operations
 (whereof  8 operations are pure point group operations),
 and found     1 'primitive' translations


----------------------------------------------------------------------------------------

                                     Primitive cell                                     

  volume of cell :      64.3431

  direct lattice vectors                    reciprocal lattice vectors
     4.522230460  0.000000000  0.000000000     0.221129818 -0.000000000  0.000000000
     0.000000000  4.522230460  0.000000000     0.000000000  0.221129818  0.000000000
     0.000000000  0.000000000  3.146273630    -0.000000000 -0.000000000  0.317836310

  length of vectors
     4.522230460  4.522230460  3.146273630     0.221129818  0.221129818  0.317836310

  position of ions in fractional coordinates (direct lattice)
     0.500000000  0.500000000  0.500000000
     0.000000000  0.000000000  0.000000000
     0.808151920  0.191848080  0.500000000
     0.191848080  0.808151920  0.500000000
     0.308151920  0.308151920  1.000000000
     0.691848080  0.691848080  1.000000000

  ion indices of the primitive-cell ions
   primitive index   ion index
                 1           1
                 2           2
                 3           3
                 4           4
                 5           5
                 6           6

----------------------------------------------------------------------------------------

 
 
 KPOINTS: Automatic mesh                          

Automatic generation of k-mesh.
 Grid dimensions read from file:
 generate k-points for:    6    6    8

 Generating k-lattice:

  Cartesian coordinates                     Fractional coordinates (reciprocal lattice)
     0.036854970 -0.000000000  0.000000000     0.166666667 -0.000000000  0.000000000
     0.000000000  0.036854970  0.000000000     0.000000000  0.166666667  0.000000000
    -0.000000000 -0.000000000  0.039729539     0.000000000 -0.000000000  0.125000000

  Length of vectors
     0.036854970  0.036854970  0.039729539

  Shift w.r.t. Gamma in fractional coordinates (k-lattice)
     0.000000000  0.000000000  0.000000000

 
 Subroutine IBZKPT returns following result:
 ===========================================
 
 Found     50 irreducible k-points:
 
 Following reciprocal coordinates:
            Coordinates               Weight
  0.000000  0.000000  0.000000      1.000000
  0.166667  0.000000  0.000000      4.000000
  0.333333  0.000000  0.000000      4.000000
  0.500000  0.000000  0.000000      2.000000
  0.166667  0.166667  0.000000      4.000000
  0.333333  0.166667  0.000000      8.000000
  0.500000  0.166667  0.000000      4.000000
  0.333333  0.333333  0.000000      4.000000
  0.500000  0.333333  0.000000      4.000000
  0.500000  0.500000  0.000000      1.000000
  0.000000  0.000000  0.125000      2.000000
  0.166667  0.000000  0.125000      8.000000
  0.333333  0.000000  0.125000      8.000000
  0.500000  0.000000  0.125000      4.000000
  0.166667  0.166667  0.125000      8.000000
  0.333333  0.166667  0.125000     16.000000
  0.500000  0.166667  0.125000      8.000000
  0.333333  0.333333  0.125000      8.000000
  0.500000  0.333333  0.125000      8.000000
  0.500000  0.500000  0.125000      2.000000
  0.000000  0.000000  0.250000      2.000000
  0.166667  0.000000  0.250000      8.000000
  0.333333  0.000000  0.250000      8.000000
  0.500000  0.000000  0.250000      4.000000
  0.166667  0.166667  0.250000      8.000000
  0.333333  0.166667  0.250000     16.000000
  0.500000  0.166667  0.250000      8.000000
  0.333333  0.333333  0.250000      8.000000
  0.500000  0.333333  0.250000      8.000000
  0.500000  0.500000  0.250000      2.000000
  0.000000  0.000000  0.375000      2.000000
  0.166667  0.000000  0.375000      8.000000
  0.333333  0.000000  0.375000      8.000000
  0.500000  0.000000  0.375000      4.000000
  0.166667  0.166667  0.375000      8.000000
  0.333333  0.166667  0.375000     16.000000
  0.500000  0.166667  0.375000      8.000000
  0.333333  0.333333  0.375000      8.000000
  0.500000  0.333333  0.375000      8.000000
  0.500000  0.500000  0.375000      2.000000
  0.000000  0.000000  0.500000      1.000000
  0.166667  0.000000  0.500000      4.000000
  0.333333  0.000000  0.500000      4.000000
  0.500000  0.000000  0.500000      2.000000
  0.166667  0.166667  0.500000      4.000000
  0.333333  0.166667  0.500000      8.000000
  0.500000  0.166667  0.500000      4.000000
  0.333333  0.333333  0.500000      4.000000
  0.500000  0.333333  0.500000      4.000000
  0.500000  0.500000  0.500000      1.000000
 
 Following cartesian coordinates:
            Coordinates               Weight
  0.000000  0.000000  0.000000      1.000000
  0.036855  0.000000  0.000000      4.000000
  0.073710  0.000000  0.000000      4.000000
  0.110565  0.000000  0.000000      2.000000
  0.036855  0.036855  0.000000      4.000000
  0.073710  0.036855  0.000000      8.000000
  0.110565  0.036855  0.000000      4.000000
  0.073710  0.073710  0.000000      4.000000
  0.110565  0.073710  0.000000      4.000000
  0.110565  0.110565  0.000000      1.000000
  0.000000  0.000000  0.039730      2.000000
  0.036855  0.000000  0.039730      8.000000
  0.073710  0.000000  0.039730      8.000000
  0.110565  0.000000  0.039730      4.000000
  0.036855  0.036855  0.039730      8.000000
  0.073710  0.036855  0.039730     16.000000
  0.110565  0.036855  0.039730      8.000000
  0.073710  0.073710  0.039730      8.000000
  0.110565  0.073710  0.039730      8.000000
  0.110565  0.110565  0.039730      2.000000
  0.000000  0.000000  0.079459      2.000000
  0.036855  0.000000  0.079459      8.000000
  0.073710  0.000000  0.079459      8.000000
  0.110565  0.000000  0.079459      4.000000
  0.036855  0.036855  0.079459      8.000000
  0.073710  0.036855  0.079459     16.000000
  0.110565  0.036855  0.079459      8.000000
  0.073710  0.073710  0.079459      8.000000
  0.110565  0.073710  0.079459      8.000000
  0.110565  0.110565  0.079459      2.000000
  0.000000  0.000000  0.119189      2.000000
  0.036855  0.000000  0.119189      8.000000
  0.073710  0.000000  0.119189      8.000000
  0.110565  0.000000  0.119189      4.000000
  0.036855  0.036855  0.119189      8.000000
  0.073710  0.036855  0.119189     16.000000
  0.110565  0.036855  0.119189      8.000000
  0.073710  0.073710  0.119189      8.000000
  0.110565  0.073710  0.119189      8.000000
  0.110565  0.110565  0.119189      2.000000
  0.000000  0.000000  0.158918      1.000000
  0.036855  0.000000  0.158918      4.000000
  0.073710  0.000000  0.158918      4.000000
  0.110565  0.000000  0.158918      2.000000
  0.036855  0.036855  0.158918      4.000000
  0.073710  0.036855  0.158918      8.000000
  0.110565  0.036855  0.158918      4.000000
  0.073710  0.073710  0.158918      4.000000
  0.110565  0.073710  0.158918      4.000000
  0.110565  0.110565  0.158918      1.000000
 


--------------------------------------------------------------------------------------------------------




 Dimension of arrays:
   k-points           NKPTS =     50   k-points in BZ     NKDIM =     50   number of bands    NBANDS=     36
   number of dos      NEDOS =    301   number of ions     NIONS =      6
   non local maximal  LDIM  =      6   non local SUM 2l+1 LMDIM =     18
   total plane-waves  NPLWV =  31104
   max r-space proj   IRMAX =      1   max aug-charges    IRDMAX= 155006
   dimension x,y,z NGX =    36 NGY =   36 NGZ =   24
   dimension x,y,z NGXF=    72 NGYF=   72 NGZF=   48
   support grid    NGXF=   144 NGYF=  144 NGZF=   96
   ions per type =               2   4
   NGX,Y,Z   is equivalent  to a cutoff of  13.23, 13.23, 12.68 a.u.
   NGXF,Y,Z  is equivalent  to a cutoff of  26.47, 26.47, 25.36 a.u.

 SYSTEM =  pddmc                                   
 POSCAR =  Pd O                                    

 Startparameter for this run:
   NWRITE =      2    write-flag & timer
   PREC   = accura    normal or accurate (medium, high low for compatibility)
   ISTART =      0    job   : 0-new  1-cont  2-samecut
   ICHARG =      2    charge: 1-file 2-atom 10-const
   ISPIN  =      2    spin polarized calculation?
   LNONCOLLINEAR =      F non collinear calculations
   LSORBIT =      F    spin-orbit coupling
   INIWAV =      1    electr: 0-lowe 1-rand  2-diag
   LASPH  =      T    aspherical Exc in radial PAW
 Electronic Relaxation 1
   ENCUT  =  550.0 eV  40.42 Ry    6.36 a.u.   8.65  8.65  6.02*2*pi/ulx,y,z
   ENINI  =  550.0     initial cutoff
   ENAUG  =  605.4 eV  augmentation charge cutoff
   NELM   =    200;   NELMIN=  5; NELMDL= -5     # of ELM steps 
   EDIFF  = 0.1E-05   stopping-criterion for ELM
   LREAL  =      F    real-space projection
   NLSPLINE    = F    spline interpolate recip. space projectors
   LCOMPAT=      F    compatible to vasp.4.4
   GGA_COMPAT  = T    GGA compatible to vasp.4.4-vasp.4.6
   LMAXPAW     = -100 max onsite density
   LMAXMIX     =    2 max onsite mixed and CHGCAR
   VOSKOWN=      0    Vosko Wilk Nusair interpolation
   ROPT   =    0.00000   0.00000
 Ionic relaxation
   EDIFFG = -.1E-01   stopping-criterion for IOM
   NSW    =      0    number of steps for IOM
   NBLOCK =      1;   KBLOCK =      1    inner block; outer block 
   IBRION =     -1    ionic relax: 0-MD 1-quasi-New 2-CG
   NFREE  =      0    steps in history (QN), initial steepest desc. (CG)
   ISIF   =      0    stress and relaxation
   IWAVPR =     10    prediction:  0-non 1-charg 2-wave 3-comb
   ISYM   =      2    0-nonsym 1-usesym 2-fastsym
   LCORR  =      T    Harris-Foulkes like correction to forces

   POTIM  = 0.5000    time-step for ionic-motion
   TEIN   =    0.0    initial temperature
   TEBEG  =    0.0;   TEEND  =   0.0 temperature during run
   SMASS  =  -3.00    Nose mass-parameter (am)
   estimated Nose-frequenzy (Omega)   =  0.10E-29 period in steps = 0.13E+47 mass=  -0.467E-27a.u.
   SCALEE = 1.0000    scale energy and forces
   NPACO  =    256;   APACO  = 10.0  distance and # of slots for P.C.
   PSTRESS=    0.0 pullay stress

  Mass of Ions in am
   POMASS = 106.42 16.00
  Ionic Valenz
   ZVAL   =  16.00  6.00
  Atomic Wigner-Seitz radii
   RWIGS  =  -1.00 -1.00
  virtual crystal weights 
   VCA    =   1.00  1.00
   NELECT =      56.0000    total number of electrons
   NUPDOWN=      -1.0000    fix difference up-down

 DOS related values:
   EMIN   =  10.00;   EMAX   =-10.00  energy-range for DOS
   EFERMI =   0.00;   METHOD = LEGACY      
   ISMEAR =     0;   SIGMA  =   0.05  broadening in eV -4-tet -1-fermi 0-gaus

 Electronic relaxation 2 (details)
   IALGO  =     38    algorithm
   LDIAG  =      T    sub-space diagonalisation (order eigenvalues)
   LSUBROT=      F    optimize rotation matrix (better conditioning)
   TURBO    =      0    0=normal 1=particle mesh
   IRESTART =      0    0=no restart 2=restart with 2 vectors
   NREBOOT  =      0    no. of reboots
   NMIN     =      0    reboot dimension
   EREF     =   0.00    reference energy to select bands
   IMIX   =      4    mixing-type and parameters
     AMIX     =   0.40;   BMIX     =  1.00
     AMIX_MAG =   1.60;   BMIX_MAG =  1.00
     AMIN     =   0.10
     WC   =   100.;   INIMIX=   1;  MIXPRE=   1;  MAXMIX= -45

 Intra band minimization:
   WEIMIN = 0.0000     energy-eigenvalue tresh-hold
   EBREAK =  0.69E-08  absolut break condition
   DEPER  =   0.30     relativ break condition  

   TIME   =   0.40     timestep for ELM

  volume/ion in A,a.u.               =      10.72        72.37
  Fermi-wavevector in a.u.,A,eV,Ry     =   1.563040  2.953718 33.240331  2.443095
  Thomas-Fermi vector in A             =   2.665870
 
 Write flags
   LWAVE        =      F    write WAVECAR
   LDOWNSAMPLE  =      F    k-point downsampling of WAVECAR
   LCHARG       =      F    write CHGCAR
   LVTOT        =      F    write LOCPOT, total local potential
   LVHAR        =      F    write LOCPOT, Hartree potential only
   WRT_POTENTIAL= false  ! write potential to hdf5 file
   LELF         =      F    write electronic localiz. function (ELF)
   LORBIT       =     11    0 simple, 1 ext, 2 COOP (PROOUT), +10 PAW based schemes


 Dipole corrections
   LMONO      =      F    monopole corrections only (constant potential shift)
   LDIPOL     =      F    correct potential (dipole corrections)
   IDIPOL     =      0    1-x, 2-y, 3-z, 4-all directions 
   EPSILON    =  1.0000000 bulk dielectric constant
   LVACPOTAV  =      F  vacuum potentials using an averaging scheme for the charge density
   VACPOTFLAT =  0.1000000 required flatness to determine vacuum potential
 Exchange correlation treatment:
   GGA     = PE    functional components
   XC_C    = 1    coefficients multiplying the functional components
   LIBXC   =     F    Libxc                    
   VOSKOWN =     0    Vosko Wilk Nusair interpolation
   LHFCALC =     F    Hartree Fock is set to
   LHFONE  =     F    Hartree Fock one center treatment
   AEXX    =    0.0000 exact exchange contribution

 Parameters of functionals:
   PE:
     No parameter
 
 Van der Waals corrections
   IVDW    =    12    specifies the selected vdW correction

 Linear response parameters
   LEPSILON=     F    determine dielectric tensor
   LRPA    =     F    only Hartree local field effects (RPA)
   LNABLA  =     F    use nabla operator in PAW spheres
   LVEL    =     F    velocity operator in full k-point grid
   CSHIFT  =0.1000    complex shift for real part using Kramers Kronig
   OMEGAMAX=  -1.0    maximum frequency
   DEG_THRESHOLD= 0.2000000E-02 threshold for treating states as degnerate
   RTIME   =   -0.100 relaxation time in fs
  (WPLASMAI=    0.000 imaginary part of plasma frequency in eV, 0.658/RTIME)
   DFIELD  = 0.0000000 0.0000000 0.0000000 field for delta impulse in time
 
  Optional k-point grid parameters
   LKPOINTS_OPT  =     F    use optional k-point grid
   KPOINTS_OPT_MODE=     1    mode for optional k-point grid
 
 Orbital magnetization related:
   ORBITALMAG=     F  switch on orbital magnetization
   LCHIMAG   =     F  perturbation theory with respect to B field
   DQ        =  0.001000  dq finite difference perturbation B field
   LLRAUG    =     F  two centre corrections for induced B field
   LBONE     =     F  B-component reconstruction in AE one-centre
   LVGVCALC  =     T  calculate vGv susceptibility
   LVGVAPPL  =     F  apply vGv susceptibility instead of pGv for G=0

 Random number generation:
   RANDOM_GENERATOR = DEFAULT
   PCG_SEED         = not used


--------------------------------------------------------------------------------------------------------


 Static calculation
 charge density and potential will be updated during run
 spin polarized calculation
 Variant of blocked Davidson
 Davidson routine will perform the subspace rotation
 perform sub-space diagonalisation
    after iterative eigenvector-optimisation
 modified Broyden-mixing scheme, WC =      100.0
 initial mixing is a Kerker type mixing with AMIX =  0.4000 and BMIX =      1.0000
 Hartree-type preconditioning will be used
 using additional bands             8
 reciprocal scheme for non local part
 use partial core corrections
 calculate Harris-corrections to forces 
   (improved forces if not selfconsistent)
 use gradient corrections 
 use of overlap-Matrix (Vanderbilt PP)
 Gauss-broadening in eV      SIGMA  =   0.05


--------------------------------------------------------------------------------------------------------


  energy-cutoff  :      550.00
  volume of cell :       64.34
      direct lattice vectors                 reciprocal lattice vectors
     4.522230460  0.000000000  0.000000000     0.221129818 -0.000000000  0.000000000
     0.000000000  4.522230460  0.000000000     0.000000000  0.221129818  0.000000000
     0.000000000  0.000000000  3.146273630    -0.000000000 -0.000000000  0.317836310

  length of vectors
     4.522230460  4.522230460  3.146273630     0.221129818  0.221129818  0.317836310


 
 k-points in units of 2pi/SCALE and weight: Automatic mesh                          
   0.00000000  0.00000000  0.00000000       0.003
   0.03685497  0.00000000  0.00000000       0.014
   0.07370994  0.00000000  0.00000000       0.014
   0.11056491  0.00000000  0.00000000       0.007
   0.03685497  0.03685497  0.00000000       0.014
   0.07370994  0.03685497  0.00000000       0.028
   0.11056491  0.03685497  0.00000000       0.014
   0.07370994  0.07370994  0.00000000       0.014
   0.11056491  0.07370994  0.00000000       0.014
   0.11056491  0.11056491  0.00000000       0.003
   0.00000000  0.00000000  0.03972954       0.007
   0.03685497  0.00000000  0.03972954       0.028
   0.07370994  0.00000000  0.03972954       0.028
   0.11056491  0.00000000  0.03972954       0.014
   0.03685497  0.03685497  0.03972954       0.028
   0.07370994  0.03685497  0.03972954       0.056
   0.11056491  0.03685497  0.03972954       0.028
   0.07370994  0.07370994  0.03972954       0.028
   0.11056491  0.07370994  0.03972954       0.028
   0.11056491  0.11056491  0.03972954       0.007
   0.00000000  0.00000000  0.07945908       0.007
   0.03685497  0.00000000  0.07945908       0.028
   0.07370994  0.00000000  0.07945908       0.028
   0.11056491  0.00000000  0.07945908       0.014
   0.03685497  0.03685497  0.07945908       0.028
   0.07370994  0.03685497  0.07945908       0.056
   0.11056491  0.03685497  0.07945908       0.028
   0.07370994  0.07370994  0.07945908       0.028
   0.11056491  0.07370994  0.07945908       0.028
   0.11056491  0.11056491  0.07945908       0.007
   0.00000000  0.00000000  0.11918862       0.007
   0.03685497  0.00000000  0.11918862       0.028
   0.07370994  0.00000000  0.11918862       0.028
   0.11056491  0.00000000  0.11918862       0.014
   0.03685497  0.03685497  0.11918862       0.028
   0.07370994  0.03685497  0.11918862       0.056
   0.11056491  0.03685497  0.11918862       0.028
   0.07370994  0.07370994  0.11918862       0.028
   0.11056491  0.07370994  0.11918862       0.028
   0.11056491  0.11056491  0.11918862       0.007
   0.00000000  0.00000000  0.15891815       0.003
   0.03685497  0.00000000  0.15891815       0.014
   0.07370994  0.00000000  0.15891815       0.014
   0.11056491  0.00000000  0.15891815       0.007
   0.03685497  0.03685497  0.15891815       0.014
   0.07370994  0.03685497  0.15891815       0.028
   0.11056491  0.03685497  0.15891815       0.014
   0.07370994  0.07370994  0.15891815       0.014
   0.11056491  0.07370994  0.15891815       0.014
   0.11056491  0.11056491  0.15891815       0.003
 
 k-points in reciprocal lattice and weights: Automatic mesh                          
   0.00000000  0.00000000  0.00000000       0.003
   0.16666667  0.00000000  0.00000000       0.014
   0.33333333  0.00000000  0.00000000       0.014
   0.50000000  0.00000000  0.00000000       0.007
   0.16666667  0.16666667  0.00000000       0.014
   0.33333333  0.16666667  0.00000000       0.028
   0.50000000  0.16666667  0.00000000       0.014
   0.33333333  0.33333333  0.00000000       0.014
   0.50000000  0.33333333  0.00000000       0.014
   0.50000000  0.50000000  0.00000000       0.003
   0.00000000  0.00000000  0.12500000       0.007
   0.16666667  0.00000000  0.12500000       0.028
   0.33333333  0.00000000  0.12500000       0.028
   0.50000000  0.00000000  0.12500000       0.014
   0.16666667  0.16666667  0.12500000       0.028
   0.33333333  0.16666667  0.12500000       0.056
   0.50000000  0.16666667  0.12500000       0.028
   0.33333333  0.33333333  0.12500000       0.028
   0.50000000  0.33333333  0.12500000       0.028
   0.50000000  0.50000000  0.12500000       0.007
   0.00000000  0.00000000  0.25000000       0.007
   0.16666667  0.00000000  0.25000000       0.028
   0.33333333  0.00000000  0.25000000       0.028
   0.50000000  0.00000000  0.25000000       0.014
   0.16666667  0.16666667  0.25000000       0.028
   0.33333333  0.16666667  0.25000000       0.056
   0.50000000  0.16666667  0.25000000       0.028
   0.33333333  0.33333333  0.25000000       0.028
   0.50000000  0.33333333  0.25000000       0.028
   0.50000000  0.50000000  0.25000000       0.007
   0.00000000  0.00000000  0.37500000       0.007
   0.16666667  0.00000000  0.37500000       0.028
   0.33333333  0.00000000  0.37500000       0.028
   0.50000000  0.00000000  0.37500000       0.014
   0.16666667  0.16666667  0.37500000       0.028
   0.33333333  0.16666667  0.37500000       0.056
   0.50000000  0.16666667  0.37500000       0.028
   0.33333333  0.33333333  0.37500000       0.028
   0.50000000  0.33333333  0.37500000       0.028
   0.50000000  0.50000000  0.37500000       0.007
   0.00000000  0.00000000  0.50000000       0.003
   0.16666667  0.00000000  0.50000000       0.014
   0.33333333  0.00000000  0.50000000       0.014
   0.50000000  0.00000000  0.50000000       0.007
   0.16666667  0.16666667  0.50000000       0.014
   0.33333333  0.16666667  0.50000000       0.028
   0.50000000  0.16666667  0.50000000       0.014
   0.33333333  0.33333333  0.50000000       0.014
   0.50000000  0.33333333  0.50000000       0.014
   0.50000000  0.50000000  0.50000000       0.003
 
 position of ions in fractional coordinates (direct lattice) 
   0.50000000  0.50000000  0.50000000
   0.00000000  0.00000000  0.00000000
   0.80815192  0.19184808  0.50000000
   0.19184808  0.80815192  0.50000000
   0.30815192  0.30815192  0.00000000
   0.69184808  0.69184808  0.00000000
 
 position of ions in cartesian coordinates  (Angst):
   2.26111523  2.26111523  1.57313682
   0.00000000  0.00000000  0.00000000
   3.65464923  0.86758123  1.57313682
   0.86758123  3.65464923  1.57313682
   1.39353400  1.39353400  0.00000000
   3.12869646  3.12869646  0.00000000
 


--------------------------------------------------------------------------------------------------------


 k-point     1 :   0.0000 0.0000 0.0000  plane waves:    1885
 k-point     2 :   0.1667 0.0000 0.0000  plane waves:    1877
 k-point     3 :   0.3333 0.0000 0.0000  plane waves:    1885
 k-point     4 :   0.5000 0.0000 0.0000  plane waves:    1874
 k-point     5 :   0.1667 0.1667 0.0000  plane waves:    1882
 k-point     6 :   0.3333 0.1667 0.0000  plane waves:    1868
 k-point     7 :   0.5000 0.1667 0.0000  plane waves:    1856
 k-point     8 :   0.3333 0.3333 0.0000  plane waves:    1870
 k-point     9 :   0.5000 0.3333 0.0000  plane waves:    1868
 k-point    10 :   0.5000 0.5000 0.0000  plane waves:    1864
 k-point    11 :   0.0000 0.0000 0.1250  plane waves:    1896
 k-point    12 :   0.1667 0.0000 0.1250  plane waves:    1893
 k-point    13 :   0.3333 0.0000 0.1250  plane waves:    1873
 k-point    14 :   0.5000 0.0000 0.1250  plane waves:    1880
 k-point    15 :   0.1667 0.1667 0.1250  plane waves:    1889
 k-point    16 :   0.3333 0.1667 0.1250  plane waves:    1878
 k-point    17 :   0.5000 0.1667 0.1250  plane waves:    1880
 k-point    18 :   0.3333 0.3333 0.1250  plane waves:    1871
 k-point    19 :   0.5000 0.3333 0.1250  plane waves:    1874
 k-point    20 :   0.5000 0.5000 0.1250  plane waves:    1876
 k-point    21 :   0.0000 0.0000 0.2500  plane waves:    1900
 k-point    22 :   0.1667 0.0000 0.2500  plane waves:    1892
 k-point    23 :   0.3333 0.0000 0.2500  plane waves:    1888
 k-point    24 :   0.5000 0.0000 0.2500  plane waves:    1888
 k-point    25 :   0.1667 0.1667 0.2500  plane waves:    1888
 k-point    26 :   0.3333 0.1667 0.2500  plane waves:    1887
 k-point    27 :   0.5000 0.1667 0.2500  plane waves:    1892
 k-point    28 :   0.3333 0.3333 0.2500  plane waves:    1873
 k-point    29 :   0.5000 0.3333 0.2500  plane waves:    1882
 k-point    30 :   0.5000 0.5000 0.2500  plane waves:    1880
 k-point    31 :   0.0000 0.0000 0.3750  plane waves:    1880
 k-point    32 :   0.1667 0.0000 0.3750  plane waves:    1886
 k-point    33 :   0.3333 0.0000 0.3750  plane waves:    1884
 k-point    34 :   0.5000 0.0000 0.3750  plane waves:    1886
 k-point    35 :   0.1667 0.1667 0.3750  plane waves:    1881
 k-point    36 :   0.3333 0.1667 0.3750  plane waves:    1889
 k-point    37 :   0.5000 0.1667 0.3750  plane waves:    1900
 k-point    38 :   0.3333 0.3333 0.3750  plane waves:    1890
 k-point    39 :   0.5000 0.3333 0.3750  plane waves:    1884
 k-point    40 :   0.5000 0.5000 0.3750  plane waves:    1900
 k-point    41 :   0.0000 0.0000 0.5000  plane waves:    1884
 k-point    42 :   0.1667 0.0000 0.5000  plane waves:    1876
 k-point    43 :   0.3333 0.0000 0.5000  plane waves:    1902
 k-point    44 :   0.5000 0.0000 0.5000  plane waves:    1904
 k-point    45 :   0.1667 0.1667 0.5000  plane waves:    1892
 k-point    46 :   0.3333 0.1667 0.5000  plane waves:    1894
 k-point    47 :   0.5000 0.1667 0.5000  plane waves:    1904
 k-point    48 :   0.3333 0.3333 0.5000  plane waves:    1892
 k-point    49 :   0.5000 0.3333 0.5000  plane waves:    1888
 k-point    50 :   0.5000 0.5000 0.5000  plane waves:    1880

 maximum and minimum number of plane-waves per node :      1904     1856

 maximum number of plane-waves:      1904
 maximum index in each direction: 
   IXMAX=    8   IYMAX=    8   IZMAX=    6
   IXMIN=   -9   IYMIN=   -9   IZMIN=   -6


 serial   3D FFT for wavefunctions
 parallel 3D FFT for charge:
    minimum data exchange during FFTs selected (reduces bandwidth)


 total amount of memory used by VASP MPI-rank0   103251. kBytes
=======================================================================

   base      :      30000. kBytes
   nonl-proj :      27600. kBytes
   fftplans  :       9397. kBytes
   grid      :       7672. kBytes
   one-center:        186. kBytes
   wavefun   :      28396. kBytes
 
     INWAV:  cpu time      0.0000: real time      0.0001
 Broyden mixing: mesh for mixing (old mesh)
   NGX = 17   NGY = 17   NGZ = 13
  (NGX  = 72   NGY  = 72   NGZ  = 48)
  gives a total of   3757 points

 initial charge density was supplied:
 charge density of overlapping atoms calculated
 number of electron      56.0000000 magnetization       6.0000000
 keeping initial charge density in first step


--------------------------------------------------------------------------------------------------------


 Maximum index for augmentation-charges         37643 (set IRDMAX)


--------------------------------------------------------------------------------------------------------


 First call to EWALD:  gamma=   0.442
 Maximum number of real-space cells 2x 2x 3
 Maximum number of reciprocal cells 3x 3x 2

    FEWALD:  cpu time      0.0004: real time      0.0004


--------------------------------------- Ionic step        1  -------------------------------------------




--------------------------------------- Iteration      1(   1)  ---------------------------------------


    POTLOK:  cpu time      0.0498: real time      0.0500
    SETDIJ:  cpu time      0.5762: real time      0.5962
     EDDAV:  cpu time      3.7661: real time      4.1157
       DOS:  cpu time      0.0008: real time      0.0008
    --------------------------------------------
      LOOP:  cpu time      4.3929: real time      4.7626

 eigenvalue-minimisations  :  7376
 total energy-change (2. order) : 0.6025100E+03  (-0.3527754E+04)
 number of electron      56.0000000 magnetization       6.0000000
 augmentation part       56.0000000 magnetization       6.0000000

 Free energy of the ion-electron system (eV)
  ---------------------------------------------------
  alpha Z        PSCENC =       302.45619847
  Ewald energy   TEWEN  =     -5214.09126118
  -Hartree energ DENC   =     -1860.07067583
  -exchange      EXHF   =         0.00000000
  -V(xc)+E(xc)   XCENC  =       277.13147676
  PAW double counting   =      5901.46612542    -5850.99266113
  entropy T*S    EENTRO =        -0.00134455
  eigenvalues    EBANDS =        74.07926746
  atomic energy  EATOM  =      6972.53291053
  Solvation  Ediel_sol  =         0.00000000
  ---------------------------------------------------
  free energy    TOTEN  =       602.51003594 eV

  energy without entropy =      602.51138049  energy(sigma->0) =      602.51070821


--------------------------------------------------------------------------------------------------------




--------------------------------------- Iteration      1(   2)  ---------------------------------------


     EDDAV:  cpu time      3.9270: real time      3.9276
       DOS:  cpu time      0.0006: real time      0.0006
    --------------------------------------------
      LOOP:  cpu time      3.9276: real time      3.9282

 eigenvalue-minimisations  :  8424
 total energy-change (2. order) :-0.6091621E+03  (-0.5869293E+03)
 number of electron      56.0000000 magnetization       6.0000000
 augmentation part       56.0000000 magnetization       6.0000000

 Free energy of the ion-electron system (eV)
  ---------------------------------------------------
  alpha Z        PSCENC =       302.45619847
  Ewald energy   TEWEN  =     -5214.09126118
  -Hartree energ DENC   =     -1860.07067583
  -exchange      EXHF   =         0.00000000
  -V(xc)+E(xc)   XCENC  =       277.13147676
  PAW double counting   =      5901.46612542    -5850.99266113
  entropy T*S    EENTRO =        -0.00379916
  eigenvalues    EBANDS =      -535.08033929
  atomic energy  EATOM  =      6972.53291053
  Solvation  Ediel_sol  =         0.00000000
  ---------------------------------------------------
  free energy    TOTEN  =        -6.65202542 eV

  energy without entropy =       -6.64822625  energy(sigma->0) =       -6.65012584


--------------------------------------------------------------------------------------------------------




--------------------------------------- Iteration      1(   3)  ---------------------------------------


     EDDAV:  cpu time      3.6219: real time      3.6225
       DOS:  cpu time      0.0006: real time      0.0006
    --------------------------------------------
      LOOP:  cpu time      3.6225: real time      3.6230

 eigenvalue-minimisations  :  7864
 total energy-change (2. order) :-0.3389610E+02  (-0.3352720E+02)
 number of electron      56.0000000 magnetization       6.0000000
 augmentation part       56.0000000 magnetization       6.0000000

 Free energy of the ion-electron system (eV)
  ---------------------------------------------------
  alpha Z        PSCENC =       302.45619847
  Ewald energy   TEWEN  =     -5214.09126118
  -Hartree energ DENC   =     -1860.07067583
  -exchange      EXHF   =         0.00000000
  -V(xc)+E(xc)   XCENC  =       277.13147676
  PAW double counting   =      5901.46612542    -5850.99266113
  entropy T*S    EENTRO =        -0.00414789
  eigenvalues    EBANDS =      -568.97609094
  atomic energy  EATOM  =      6972.53291053
  Solvation  Ediel_sol  =         0.00000000
  ---------------------------------------------------
  free energy    TOTEN  =       -40.54812580 eV

  energy without entropy =      -40.54397791  energy(sigma->0) =      -40.54605186


--------------------------------------------------------------------------------------------------------




--------------------------------------- Iteration      1(   4)  ---------------------------------------


     EDDAV:  cpu time      3.6340: real time      3.6351
       DOS:  cpu time      0.0006: real time      0.0006
    --------------------------------------------
      LOOP:  cpu time      3.6346: real time      3.6357

 eigenvalue-minimisations  :  7900
 total energy-change (2. order) :-0.4414497E+00  (-0.4408464E+00)
 number of electron      56.0000000 magnetization       6.0000000
 augmentation part       56.0000000 magnetization       6.0000000

 Free energy of the ion-electron system (eV)
  ---------------------------------------------------
  alpha Z        PSCENC =       302.45619847
  Ewald energy   TEWEN  =     -5214.09126118
  -Hartree energ DENC   =     -1860.07067583
  -exchange      EXHF   =         0.00000000
  -V(xc)+E(xc)   XCENC  =       277.13147676
  PAW double counting   =      5901.46612542    -5850.99266113
  entropy T*S    EENTRO =        -0.00412198
  eigenvalues    EBANDS =      -569.41756653
  atomic energy  EATOM  =      6972.53291053
  Solvation  Ediel_sol  =         0.00000000
  ---------------------------------------------------
  free energy    TOTEN  =       -40.98957547 eV

  energy without entropy =      -40.98545350  energy(sigma->0) =      -40.98751448


--------------------------------------------------------------------------------------------------------




--------------------------------------- Iteration      1(   5)  ---------------------------------------


     EDDAV:  cpu time      3.5967: real time      3.5996
       DOS:  cpu time      0.0006: real time      0.0006
    CHARGE:  cpu time      0.3037: real time      0.3037
    MIXING:  cpu time      0.0015: real time      0.0015
    --------------------------------------------
      LOOP:  cpu time      3.9026: real time      3.9054

 eigenvalue-minimisations  :  7768
 total energy-change (2. order) :-0.4949124E-02  (-0.4948551E-02)
 number of electron      56.0000002 magnetization       0.0868573
 augmentation part       16.7786100 magnetization      -0.0634087

 Broyden mixing:
  rms(total) = 0.28122E+01    rms(broyden)= 0.28118E+01
  rms(prec ) = 0.53314E+01
  weight for this iteration     100.00

 Free energy of the ion-electron system (eV)
  ---------------------------------------------------
  alpha Z        PSCENC =       302.45619847
  Ewald energy   TEWEN  =     -5214.09126118
  -Hartree energ DENC   =     -1860.07067583
  -exchange      EXHF   =         0.00000000
  -V(xc)+E(xc)   XCENC  =       277.13147676
  PAW double counting   =      5901.46612542    -5850.99266113
  entropy T*S    EENTRO =        -0.00412143
  eigenvalues    EBANDS =      -569.42251620
  atomic energy  EATOM  =      6972.53291053
  Solvation  Ediel_sol  =         0.00000000
  ---------------------------------------------------
  free energy    TOTEN  =       -40.99452460 eV

  energy without entropy =      -40.99040317  energy(sigma->0) =      -40.99246388


--------------------------------------------------------------------------------------------------------




--------------------------------------- Iteration      1(   6)  ---------------------------------------


    POTLOK:  cpu time      0.0478: real time      0.0478
    SETDIJ:  cpu time      0.5786: real time      0.5788
     EDDAV:  cpu time      3.5764: real time      3.5801
       DOS:  cpu time      0.0006: real time      0.0006
    CHARGE:  cpu time      0.3080: real time      0.3080
    MIXING:  cpu time      0.0018: real time      0.0018
    --------------------------------------------
      LOOP:  cpu time      4.5131: real time      4.5172

 eigenvalue-minimisations  :  7728
 total energy-change (2. order) : 0.5351592E+01  (-0.5160860E+01)
 number of electron      56.0000002 magnetization      -0.2991962
 augmentation part       18.3643875 magnetization       0.0192024

 Broyden mixing:
  rms(total) = 0.15623E+01    rms(broyden)= 0.15619E+01
  rms(prec ) = 0.33679E+01
  weight for this iteration     100.00

 eigenvalues of (default mixing * dielectric matrix)
  average eigenvalue GAMMA=   0.7316
  0.7316

 Free energy of the ion-electron system (eV)
  ---------------------------------------------------
  alpha Z        PSCENC =       302.45619847
  Ewald energy   TEWEN  =     -5214.09126118
  -Hartree energ DENC   =     -1784.46414721
  -exchange      EXHF   =         0.00000000
  -V(xc)+E(xc)   XCENC  =       276.15786513
  PAW double counting   =      6060.43425459    -6024.26332066
  entropy T*S    EENTRO =        -0.00888924
  eigenvalues    EBANDS =      -624.39654342
  atomic energy  EATOM  =      6972.53291053
  Solvation  Ediel_sol  =         0.00000000
  ---------------------------------------------------
  free energy    TOTEN  =       -35.64293299 eV

  energy without entropy =      -35.63404374  energy(sigma->0) =      -35.63848837


--------------------------------------------------------------------------------------------------------




--------------------------------------- Iteration      1(   7)  ---------------------------------------


    POTLOK:  cpu time      0.0480: real time      0.0481
    SETDIJ:  cpu time      0.5802: real time      0.5802
     EDDAV:  cpu time      3.5086: real time      3.5108
       DOS:  cpu time      0.0006: real time      0.0006
    CHARGE:  cpu time      0.3055: real time      0.3055
    MIXING:  cpu time      0.0014: real time      0.0014
    --------------------------------------------
      LOOP:  cpu time      4.4442: real time      4.4466

 eigenvalue-minimisations  :  7552
 total energy-change (2. order) : 0.3447064E+01  (-0.1574656E+01)
 number of electron      56.0000002 magnetization      -0.3517783
 augmentation part       17.4095077 magnetization      -0.1853226

 Broyden mixing:
  rms(total) = 0.53968E+00    rms(broyden)= 0.53953E+00
  rms(prec ) = 0.84573E+00
  weight for this iteration     100.00

 eigenvalues of (default mixing * dielectric matrix)
  average eigenvalue GAMMA=   0.7243
  0.9173  0.5312

 Free energy of the ion-electron system (eV)
  ---------------------------------------------------
  alpha Z        PSCENC =       302.45619847
  Ewald energy   TEWEN  =     -5214.09126118
  -Hartree energ DENC   =     -1819.83282762
  -exchange      EXHF   =         0.00000000
  -V(xc)+E(xc)   XCENC  =       276.58189743
  PAW double counting   =      6242.39210521    -6203.85365783
  entropy T*S    EENTRO =        -0.00531590
  eigenvalues    EBANDS =      -588.37591835
  atomic energy  EATOM  =      6972.53291053
  Solvation  Ediel_sol  =         0.00000000
  ---------------------------------------------------
  free energy    TOTEN  =       -32.19586925 eV

  energy without entropy =      -32.19055334  energy(sigma->0) =      -32.19321129


--------------------------------------------------------------------------------------------------------




--------------------------------------- Iteration      1(   8)  ---------------------------------------


    POTLOK:  cpu time      0.0470: real time      0.0471
    SETDIJ:  cpu time      0.5778: real time      0.5778
     EDDAV:  cpu time      3.5089: real time      3.5103
       DOS:  cpu time      0.0006: real time      0.0006
    CHARGE:  cpu time      0.2989: real time      0.2994
    MIXING:  cpu time      0.0014: real time      0.0014
    --------------------------------------------
      LOOP:  cpu time      4.4346: real time      4.4366

 eigenvalue-minimisations  :  7644
 total energy-change (2. order) : 0.5240810E-01  (-0.1273202E+00)
 number of electron      56.0000002 magnetization      -0.3042351
 augmentation part       17.5345614 magnetization      -0.1279789

 Broyden mixing:
  rms(total) = 0.30151E+00    rms(broyden)= 0.30150E+00
  rms(prec ) = 0.41745E+00
  weight for this iteration     100.00

 eigenvalues of (default mixing * dielectric matrix)
  average eigenvalue GAMMA=   1.0441
  0.5592  0.8661  1.7071

 Free energy of the ion-electron system (eV)
  ---------------------------------------------------
  alpha Z        PSCENC =       302.45619847
  Ewald energy   TEWEN  =     -5214.09126118
  -Hartree energ DENC   =     -1808.57873991
  -exchange      EXHF   =         0.00000000
  -V(xc)+E(xc)   XCENC  =       276.19427679
  PAW double counting   =      6361.71026141    -6325.44141950
  entropy T*S    EENTRO =        -0.00509489
  eigenvalues    EBANDS =      -596.92059286
  atomic energy  EATOM  =      6972.53291053
  Solvation  Ediel_sol  =         0.00000000
  ---------------------------------------------------
  free energy    TOTEN  =       -32.14346115 eV

  energy without entropy =      -32.13836626  energy(sigma->0) =      -32.14091370


--------------------------------------------------------------------------------------------------------




--------------------------------------- Iteration      1(   9)  ---------------------------------------


    POTLOK:  cpu time      0.0469: real time      0.0470
    SETDIJ:  cpu time      0.5840: real time      0.5840
     EDDAV:  cpu time      3.5794: real time      3.5811
       DOS:  cpu time      0.0006: real time      0.0006
    CHARGE:  cpu time      0.3121: real time      0.3121
    MIXING:  cpu time      0.0016: real time      0.0016
    --------------------------------------------
      LOOP:  cpu time      4.5247: real time      4.5265

 eigenvalue-minimisations  :  7820
 total energy-change (2. order) : 0.2773459E-01  (-0.1308344E-01)
 number of electron      56.0000002 magnetization      -0.2912110
 augmentation part       17.6112421 magnetization      -0.1120853

 Broyden mixing:
  rms(total) = 0.84783E-01    rms(broyden)= 0.84773E-01
  rms(prec ) = 0.15311E+00
  weight for this iteration     100.00

 eigenvalues of (default mixing * dielectric matrix)
  average eigenvalue GAMMA=   1.1378
  2.3702  0.8643  0.5802  0.7367

 Free energy of the ion-electron system (eV)
  ---------------------------------------------------
  alpha Z        PSCENC =       302.45619847
  Ewald energy   TEWEN  =     -5214.09126118
  -Hartree energ DENC   =     -1802.20170397
  -exchange      EXHF   =         0.00000000
  -V(xc)+E(xc)   XCENC  =       276.10156345
  PAW double counting   =      6550.02692823    -6516.04795898
  entropy T*S    EENTRO =        -0.00556447
  eigenvalues    EBANDS =      -600.88683862
  atomic energy  EATOM  =      6972.53291053
  Solvation  Ediel_sol  =         0.00000000
  ---------------------------------------------------
  free energy    TOTEN  =       -32.11572656 eV

  energy without entropy =      -32.11016208  energy(sigma->0) =      -32.11294432


--------------------------------------------------------------------------------------------------------




--------------------------------------- Iteration      1(  10)  ---------------------------------------


    POTLOK:  cpu time      0.0467: real time      0.0468
    SETDIJ:  cpu time      0.5790: real time      0.5790
     EDDAV:  cpu time      3.5379: real time      3.5401
       DOS:  cpu time      0.0006: real time      0.0006
    CHARGE:  cpu time      0.3067: real time      0.3068
    MIXING:  cpu time      0.0016: real time      0.0016
    --------------------------------------------
      LOOP:  cpu time      4.4725: real time      4.4749

 eigenvalue-minimisations  :  7680
 total energy-change (2. order) : 0.3222328E-02  (-0.1803323E-02)
 number of electron      56.0000002 magnetization      -0.3001417
 augmentation part       17.5832366 magnetization      -0.1215199

 Broyden mixing:
  rms(total) = 0.27394E-01    rms(broyden)= 0.27392E-01
  rms(prec ) = 0.42979E-01
  weight for this iteration     100.00

 eigenvalues of (default mixing * dielectric matrix)
  average eigenvalue GAMMA=   1.1196
  2.5306  0.9349  0.9349  0.6218  0.5760

 Free energy of the ion-electron system (eV)
  ---------------------------------------------------
  alpha Z        PSCENC =       302.45619847
  Ewald energy   TEWEN  =     -5214.09126118
  -Hartree energ DENC   =     -1803.01774313
  -exchange      EXHF   =         0.00000000
  -V(xc)+E(xc)   XCENC  =       276.12028074
  PAW double counting   =      6597.55635319    -6563.72280484
  entropy T*S    EENTRO =        -0.00536635
  eigenvalues    EBANDS =      -599.94107166
  atomic energy  EATOM  =      6972.53291053
  Solvation  Ediel_sol  =         0.00000000
  ---------------------------------------------------
  free energy    TOTEN  =       -32.11250423 eV

  energy without entropy =      -32.10713788  energy(sigma->0) =      -32.10982106


--------------------------------------------------------------------------------------------------------




--------------------------------------- Iteration      1(  11)  ---------------------------------------


    POTLOK:  cpu time      0.0473: real time      0.0474
    SETDIJ:  cpu time      0.5787: real time      0.5787
     EDDAV:  cpu time      3.5434: real time      3.5453
       DOS:  cpu time      0.0006: real time      0.0006
    CHARGE:  cpu time      0.3014: real time      0.3014
    MIXING:  cpu time      0.0015: real time      0.0015
    --------------------------------------------
      LOOP:  cpu time      4.4729: real time      4.4750

 eigenvalue-minimisations  :  7644
 total energy-change (2. order) :-0.1626268E-04  (-0.2023896E-03)
 number of electron      56.0000002 magnetization      -0.3172362
 augmentation part       17.5774808 magnetization      -0.1343260

 Broyden mixing:
  rms(total) = 0.11867E-01    rms(broyden)= 0.11865E-01
  rms(prec ) = 0.18017E-01
  weight for this iteration     100.00

 eigenvalues of (default mixing * dielectric matrix)
  average eigenvalue GAMMA=   1.0863
  2.5051  1.0533  1.0533  0.5635  0.6713  0.6713

 Free energy of the ion-electron system (eV)
  ---------------------------------------------------
  alpha Z        PSCENC =       302.45619847
  Ewald energy   TEWEN  =     -5214.09126118
  -Hartree energ DENC   =     -1803.54730036
  -exchange      EXHF   =         0.00000000
  -V(xc)+E(xc)   XCENC  =       276.13346984
  PAW double counting   =      6601.23883780    -6567.30179710
  entropy T*S    EENTRO =        -0.00523757
  eigenvalues    EBANDS =      -599.52834092
  atomic energy  EATOM  =      6972.53291053
  Solvation  Ediel_sol  =         0.00000000
  ---------------------------------------------------
  free energy    TOTEN  =       -32.11252049 eV

  energy without entropy =      -32.10728292  energy(sigma->0) =      -32.10990170


--------------------------------------------------------------------------------------------------------




--------------------------------------- Iteration      1(  12)  ---------------------------------------


    POTLOK:  cpu time      0.0469: real time      0.0470
    SETDIJ:  cpu time      0.5769: real time      0.5769
     EDDAV:  cpu time      3.8956: real time      4.1042
       DOS:  cpu time      0.0006: real time      0.0006
    CHARGE:  cpu time      0.3018: real time      0.3018
    MIXING:  cpu time      0.0015: real time      0.0015
    --------------------------------------------
      LOOP:  cpu time      4.8233: real time      5.0321

 eigenvalue-minimisations  :  7784
 total energy-change (2. order) : 0.4023366E-04  (-0.2193521E-04)
 number of electron      56.0000002 magnetization      -0.3270494
 augmentation part       17.5762978 magnetization      -0.1372684

 Broyden mixing:
  rms(total) = 0.52399E-02    rms(broyden)= 0.52372E-02
  rms(prec ) = 0.73044E-02
  weight for this iteration     100.00

 eigenvalues of (default mixing * dielectric matrix)
  average eigenvalue GAMMA=   1.2106
  2.5048  2.0229  1.1051  0.8514  0.7723  0.5672  0.6506

 Free energy of the ion-electron system (eV)
  ---------------------------------------------------
  alpha Z        PSCENC =       302.45619847
  Ewald energy   TEWEN  =     -5214.09126118
  -Hartree energ DENC   =     -1804.13240099
  -exchange      EXHF   =         0.00000000
  -V(xc)+E(xc)   XCENC  =       276.15645418
  PAW double counting   =      6601.13268222    -6567.04775154
  entropy T*S    EENTRO =        -0.00509517
  eigenvalues    EBANDS =      -599.11421677
  atomic energy  EATOM  =      6972.53291053
  Solvation  Ediel_sol  =         0.00000000
  ---------------------------------------------------
  free energy    TOTEN  =       -32.11248026 eV

  energy without entropy =      -32.10738508  energy(sigma->0) =      -32.10993267


--------------------------------------------------------------------------------------------------------




--------------------------------------- Iteration      1(  13)  ---------------------------------------


    POTLOK:  cpu time      0.0609: real time      0.0609
    SETDIJ:  cpu time      0.5906: real time      0.5906
     EDDAV:  cpu time      3.5798: real time      3.5808
       DOS:  cpu time      0.0006: real time      0.0006
    CHARGE:  cpu time      0.3037: real time      0.3047
    MIXING:  cpu time      0.0016: real time      0.0016
    --------------------------------------------
      LOOP:  cpu time      4.5371: real time      4.5391

 eigenvalue-minimisations  :  7664
 total energy-change (2. order) :-0.1583771E-04  (-0.7974113E-05)
 number of electron      56.0000002 magnetization      -0.3275568
 augmentation part       17.5762940 magnetization      -0.1346510

 Broyden mixing:
  rms(total) = 0.12546E-02    rms(broyden)= 0.12497E-02
  rms(prec ) = 0.15330E-02
  weight for this iteration     100.00

 eigenvalues of (default mixing * dielectric matrix)
  average eigenvalue GAMMA=   1.2173
  2.6822  2.2800  1.0562  0.9670  0.7905  0.7610  0.5660  0.6356

 Free energy of the ion-electron system (eV)
  ---------------------------------------------------
  alpha Z        PSCENC =       302.45619847
  Ewald energy   TEWEN  =     -5214.09126118
  -Hartree energ DENC   =     -1804.38424008
  -exchange      EXHF   =         0.00000000
  -V(xc)+E(xc)   XCENC  =       276.16835308
  PAW double counting   =      6602.70640962    -6568.56158161
  entropy T*S    EENTRO =        -0.00503374
  eigenvalues    EBANDS =      -598.93425118
  atomic energy  EATOM  =      6972.53291053
  Solvation  Ediel_sol  =         0.00000000
  ---------------------------------------------------
  free energy    TOTEN  =       -32.11249610 eV

  energy without entropy =      -32.10746236  energy(sigma->0) =      -32.10997923


--------------------------------------------------------------------------------------------------------




--------------------------------------- Iteration      1(  14)  ---------------------------------------


    POTLOK:  cpu time      0.0471: real time      0.0471
    SETDIJ:  cpu time      0.5780: real time      0.5780
     EDDAV:  cpu time      4.3126: real time      4.3141
       DOS:  cpu time      0.0007: real time      0.0007
    CHARGE:  cpu time      0.3027: real time      0.3027
    MIXING:  cpu time      0.0016: real time      0.0016
    --------------------------------------------
      LOOP:  cpu time      5.2427: real time      5.2442

 eigenvalue-minimisations  :  6104
 total energy-change (2. order) :-0.1537016E-05  (-0.2768225E-06)
 number of electron      56.0000002 magnetization      -0.3280263
 augmentation part       17.5762636 magnetization      -0.1347000

 Broyden mixing:
  rms(total) = 0.48194E-03    rms(broyden)= 0.48068E-03
  rms(prec ) = 0.69592E-03
  weight for this iteration     100.00

 eigenvalues of (default mixing * dielectric matrix)
  average eigenvalue GAMMA=   1.2061
  2.7205  2.3215  1.0899  1.0899  0.9272  0.5667  0.7550  0.7550  0.6292

 Free energy of the ion-electron system (eV)
  ---------------------------------------------------
  alpha Z        PSCENC =       302.45619847
  Ewald energy   TEWEN  =     -5214.09126118
  -Hartree energ DENC   =     -1804.39638777
  -exchange      EXHF   =         0.00000000
  -V(xc)+E(xc)   XCENC  =       276.16867306
  PAW double counting   =      6602.75406896    -6568.60305468
  entropy T*S    EENTRO =        -0.00502779
  eigenvalues    EBANDS =      -598.92861723
  atomic energy  EATOM  =      6972.53291053
  Solvation  Ediel_sol  =         0.00000000
  ---------------------------------------------------
  free energy    TOTEN  =       -32.11249763 eV

  energy without entropy =      -32.10746984  energy(sigma->0) =      -32.10998374


--------------------------------------------------------------------------------------------------------




--------------------------------------- Iteration      1(  15)  ---------------------------------------


    POTLOK:  cpu time      0.0470: real time      0.0470
    SETDIJ:  cpu time      0.5778: real time      0.5779
     EDDAV:  cpu time      2.7491: real time      2.7507
       DOS:  cpu time      0.0006: real time      0.0006
    --------------------------------------------
      LOOP:  cpu time      3.3745: real time      3.3762

 eigenvalue-minimisations  :  4516
 total energy-change (2. order) : 0.3505725E-06  (-0.7500457E-07)
 number of electron      56.0000002 magnetization      -0.3280263
 augmentation part       17.5762636 magnetization      -0.1347000

 Free energy of the ion-electron system (eV)
  ---------------------------------------------------
  alpha Z        PSCENC =       302.45619847
  Ewald energy   TEWEN  =     -5214.09126118
  -Hartree energ DENC   =     -1804.39540290
  -exchange      EXHF   =         0.00000000
  -V(xc)+E(xc)   XCENC  =       276.16848896
  PAW double counting   =      6602.50497916    -6568.35046360
  entropy T*S    EENTRO =        -0.00502368
  eigenvalues    EBANDS =      -598.93292304
  atomic energy  EATOM  =      6972.53291053
  Solvation  Ediel_sol  =         0.00000000
  ---------------------------------------------------
  free energy    TOTEN  =       -32.11249728 eV

  energy without entropy =      -32.10747360  energy(sigma->0) =      -32.10998544


--------------------------------------------------------------------------------------------------------




 average (electrostatic) potential at core
  the test charge radii are     1.0504  0.7215
  (the norm of the test charge is              1.0000)
       1 -80.5419       2 -80.5419       3 -70.0453       4 -70.0453       5 -70.0453
       6 -70.0453
 
 
 
 E-fermi :   5.4877     XC(G=0): -11.8267     alpha+bet :-12.2345

 val. band max:        5.4874455240   @ k =   0.1667   0.1667   0.0000
 cond. band min:       5.4944135008   @ k =   0.0000   0.0000   0.5000
 fundamental gap:      0.0069679768
 Fermi energy:         5.4876918782

 spin component 1

 k-point     1 :       0.0000    0.0000    0.0000
  band No.  band energies     occupation 
      1     -46.4074      1.00000
      2     -46.3997      1.00000
      3     -46.2997      1.00000
      4     -46.2997      1.00000
      5     -46.1646      1.00000
      6     -46.1646      1.00000
      7     -13.9408      1.00000
      8     -12.7969      1.00000
      9     -12.0088      1.00000
     10     -12.0088      1.00000
     11      -2.7581      1.00000
     12      -2.5418      1.00000
     13      -1.4128      1.00000
     14      -1.4128      1.00000
     15      -0.9740      1.00000
     16       1.7175      1.00000
     17       2.0032      1.00000
     18       2.0032      1.00000
     19       2.1634      1.00000
     20       2.2609      1.00000
     21       2.2609      1.00000
     22       2.4206      1.00000
     23       2.9486      1.00000
     24       3.3212      1.00000
     25       4.1514      1.00000
     26       4.1514      1.00000
     27       4.7111      1.00000
     28       4.8174      1.00000
     29       5.7716      0.00000
     30       8.1781      0.00000
     31       8.1781      0.00000
     32       9.1698      0.00000
     33      11.6972      0.00000
     34      15.5239      0.00000
     35      15.5239      0.00000
     36      18.3766      0.00000

 k-point     2 :       0.1667    0.0000    0.0000
  band No.  band energies     occupation 
      1     -46.4069      1.00000
      2     -46.4002      1.00000
      3     -46.2996      1.00000
      4     -46.2996      1.00000
      5     -46.1649      1.00000
      6     -46.1649      1.00000
      7     -13.8479      1.00000
      8     -12.8044      1.00000
      9     -12.1089      1.00000
     10     -12.0499      1.00000
     11      -2.5788      1.00000
     12      -2.3281      1.00000
     13      -1.3944      1.00000
     14      -1.3858      1.00000
     15      -0.8096      1.00000
     16       1.2729      1.00000
     17       1.3762      1.00000
     18       1.3966      1.00000
     19       1.9480      1.00000
     20       2.1092      1.00000
     21       2.7151      1.00000
     22       2.8481      1.00000
     23       3.2461      1.00000
     24       3.5881      1.00000
     25       3.8453      1.00000
     26       4.0984      1.00000
     27       4.7253      1.00000
     28       5.4209      0.97066
     29       5.6637      0.00000
     30       8.0714      0.00000
     31       8.1041      0.00000
     32       9.0095      0.00000
     33      12.1024      0.00000
     34      15.4846      0.00000
     35      15.6825      0.00000
     36      18.2440      0.00000

 k-point     3 :       0.3333    0.0000    0.0000
  band No.  band energies     occupation 
      1     -46.4055      1.00000
      2     -46.4016      1.00000
      3     -46.2992      1.00000
      4     -46.2992      1.00000
      5     -46.1654      1.00000
      6     -46.1654      1.00000
      7     -13.5880      1.00000
      8     -12.9113      1.00000
      9     -12.2678      1.00000
     10     -12.1528      1.00000
     11      -2.0969      1.00000
     12      -1.8280      1.00000
     13      -1.3507      1.00000
     14      -1.3343      1.00000
     15      -0.3171      1.00000
     16       0.4104      1.00000
     17       0.4641      1.00000
     18       1.1266      1.00000
     19       1.4038      1.00000
     20       1.4680      1.00000
     21       3.2861      1.00000
     22       3.3554      1.00000
     23       3.5495      1.00000
     24       3.6754      1.00000
     25       3.8852      1.00000
     26       4.0902      1.00000
     27       4.6140      1.00000
     28       5.3003      1.00000
     29       6.5857      0.00000
     30       7.8677      0.00000
     31       7.9304      0.00000
     32       8.5026      0.00000
     33      13.0935      0.00000
     34      15.1216      0.00000
     35      16.1879      0.00000
     36      17.7713      0.00000

 k-point     4 :       0.5000    0.0000    0.0000
  band No.  band energies     occupation 
      1     -46.4035      1.00000
      2     -46.4035      1.00000
      3     -46.2990      1.00000
      4     -46.2990      1.00000
      5     -46.1656      1.00000
      6     -46.1656      1.00000
      7     -13.2265      1.00000
      8     -13.2265      1.00000
      9     -12.2599      1.00000
     10     -12.2599      1.00000
     11      -1.6074      1.00000
     12      -1.6074      1.00000
     13      -1.3175      1.00000
     14      -1.3175      1.00000
     15      -0.0486      1.00000
     16      -0.0486      1.00000
     17       0.4796      1.00000
     18       0.4796      1.00000
     19       1.1517      1.00000
     20       1.1517      1.00000
     21       3.4971      1.00000
     22       3.4971      1.00000
     23       3.8163      1.00000
     24       3.8163      1.00000
     25       3.8910      1.00000
     26       3.8910      1.00000
     27       4.8857      1.00000
     28       4.8857      1.00000
     29       7.6621      0.00000
     30       7.6621      0.00000
     31       7.8005      0.00000
     32       7.8005      0.00000
     33      14.2364      0.00000
     34      14.2364      0.00000
     35      16.9795      0.00000
     36      16.9795      0.00000

 k-point     5 :       0.1667    0.1667    0.0000
  band No.  band energies     occupation 
      1     -46.4064      1.00000
      2     -46.4007      1.00000
      3     -46.2999      1.00000
      4     -46.2991      1.00000
      5     -46.1654      1.00000
      6     -46.1646      1.00000
      7     -13.7681      1.00000
      8     -12.8248      1.00000
      9     -12.2068      1.00000
     10     -12.0451      1.00000
     11      -2.6706      1.00000
     12      -1.9228      1.00000
     13      -1.4287      1.00000
     14      -1.3330      1.00000
     15      -0.6549      1.00000
     16       0.4576      1.00000
     17       1.1908      1.00000
     18       1.5984      1.00000
     19       2.2653      1.00000
     20       2.3614      1.00000
     21       2.4502      1.00000
     22       2.5893      1.00000
     23       3.1815      1.00000
     24       3.6207      1.00000
     25       3.7987      1.00000
     26       4.4115      1.00000
     27       4.6623      1.00000
     28       5.6181      0.00011
     29       5.6567      0.00000
     30       7.8988      0.00000
     31       8.1720      0.00000
     32       8.8306      0.00000
     33      12.4905      0.00000
     34      15.5696      0.00000
     35      15.7282      0.00000
     36      18.1211      0.00000

 k-point     6 :       0.3333    0.1667    0.0000
  band No.  band energies     occupation 
      1     -46.4052      1.00000
      2     -46.4019      1.00000
      3     -46.2997      1.00000
      4     -46.2990      1.00000
      5     -46.1656      1.00000
      6     -46.1649      1.00000
      7     -13.5467      1.00000
      8     -12.9576      1.00000
      9     -12.2874      1.00000
     10     -12.1198      1.00000
     11      -2.4708      1.00000
     12      -1.5643      1.00000
     13      -1.4155      1.00000
     14      -1.3169      1.00000
     15      -0.1985      1.00000
     16      -0.0329      1.00000
     17       1.0635      1.00000
     18       1.1059      1.00000
     19       1.7233      1.00000
     20       1.7829      1.00000
     21       2.9655      1.00000
     22       3.0219      1.00000
     23       3.2308      1.00000
     24       3.5759      1.00000
     25       3.9014      1.00000
     26       4.0497      1.00000
     27       4.8696      1.00000
     28       5.4631      0.75658
     29       6.4783      0.00000
     30       7.7958      0.00000
     31       8.0814      0.00000
     32       8.2937      0.00000
     33      13.4245      0.00000
     34      15.3122      0.00000
     35      16.1572      0.00000
     36      17.6773      0.00000

 k-point     7 :       0.5000    0.1667    0.0000
  band No.  band energies     occupation 
      1     -46.4035      1.00000
      2     -46.4035      1.00000
      3     -46.2993      1.00000
      4     -46.2993      1.00000
      5     -46.1654      1.00000
      6     -46.1654      1.00000
      7     -13.2407      1.00000
      8     -13.2407      1.00000
      9     -12.2317      1.00000
     10     -12.2317      1.00000
     11      -1.9761      1.00000
     12      -1.9761      1.00000
     13      -1.3611      1.00000
     14      -1.3611      1.00000
     15       0.3002      1.00000
     16       0.3002      1.00000
     17       0.7697      1.00000
     18       0.7697      1.00000
     19       1.3256      1.00000
     20       1.3256      1.00000
     21       3.3008      1.00000
     22       3.3008      1.00000
     23       3.6041      1.00000
     24       3.6041      1.00000
     25       3.6191      1.00000
     26       3.6191      1.00000
     27       5.1830      1.00000
     28       5.1830      1.00000
     29       7.4585      0.00000
     30       7.4585      0.00000
     31       7.8957      0.00000
     32       7.8957      0.00000
     33      14.4912      0.00000
     34      14.4912      0.00000
     35      16.9237      0.00000
     36      16.9237      0.00000

 k-point     8 :       0.3333    0.3333    0.0000
  band No.  band energies     occupation 
      1     -46.4045      1.00000
      2     -46.4026      1.00000
      3     -46.3001      1.00000
      4     -46.2994      1.00000
      5     -46.1654      1.00000
      6     -46.1646      1.00000
      7     -13.4318      1.00000
      8     -13.0911      1.00000
      9     -12.2573      1.00000
     10     -12.1156      1.00000
     11      -2.6513      1.00000
     12      -1.9654      1.00000
     13      -1.4607      1.00000
     14      -1.3701      1.00000
     15       0.1927      1.00000
     16       0.5216      1.00000
     17       1.1789      1.00000
     18       1.3187      1.00000
     19       2.2748      1.00000
     20       2.2922      1.00000
     21       2.4239      1.00000
     22       2.5248      1.00000
[...]
      2     -46.5093      1.00000
      3     -46.3706      1.00000
      4     -46.3706      1.00000
      5     -46.2109      1.00000
      6     -46.2109      1.00000
      7     -12.7760      1.00000
      8     -12.7760      1.00000
      9     -12.5137      1.00000
     10     -12.5137      1.00000
     11      -1.6018      1.00000
     12      -1.6018      1.00000
     13      -1.1605      1.00000
     14      -1.1605      1.00000
     15       0.3310      1.00000
     16       0.3310      1.00000
     17       0.9199      1.00000
     18       0.9199      1.00000
     19       1.6141      1.00000
     20       1.6141      1.00000
     21       2.5925      1.00000
     22       2.5925      1.00000
     23       2.6159      1.00000
     24       2.6159      1.00000
     25       3.7447      1.00000
     26       3.7447      1.00000
     27       5.1686      1.00000
     28       5.1686      1.00000
     29       5.4421      0.90145
     30       5.4421      0.90145
     31       8.3911      0.00000
     32       8.3911      0.00000
     33      16.6061      0.00000
     34      16.6061      0.00000
     35      17.6617      0.00000
     36      17.6617      0.00000

 k-point    48 :       0.3333    0.3333    0.5000
  band No.  band energies     occupation 
      1     -46.5093      1.00000
      2     -46.5090      1.00000
      3     -46.3710      1.00000
      4     -46.3706      1.00000
      5     -46.2110      1.00000
      6     -46.2109      1.00000
      7     -12.7702      1.00000
      8     -12.7358      1.00000
      9     -12.5485      1.00000
     10     -12.5165      1.00000
     11      -1.5894      1.00000
     12      -1.2634      1.00000
     13      -1.1879      1.00000
     14      -1.0134      1.00000
     15      -0.6184      1.00000
     16       0.4636      1.00000
     17       0.5565      1.00000
     18       0.8963      1.00000
     19       1.4404      1.00000
     20       1.7209      1.00000
     21       2.5869      1.00000
     22       2.6132      1.00000
     23       2.6166      1.00000
     24       3.1342      1.00000
     25       3.7503      1.00000
     26       4.5293      1.00000
     27       4.8283      1.00000
     28       5.1522      1.00000
     29       5.4221      0.96824
     30       6.4678      0.00000
     31       7.2819      0.00000
     32       8.3553      0.00000
     33      16.3579      0.00000
     34      16.8738      0.00000
     35      17.1601      0.00000
     36      18.0846      0.00000

 k-point    49 :       0.5000    0.3333    0.5000
  band No.  band energies     occupation 
      1     -46.5090      1.00000
      2     -46.5090      1.00000
      3     -46.3709      1.00000
      4     -46.3709      1.00000
      5     -46.2110      1.00000
      6     -46.2110      1.00000
      7     -12.7337      1.00000
      8     -12.7337      1.00000
      9     -12.5486      1.00000
     10     -12.5486      1.00000
     11      -1.3576      1.00000
     12      -1.3576      1.00000
     13      -1.1894      1.00000
     14      -1.1894      1.00000
     15      -0.2292      1.00000
     16      -0.2292      1.00000
     17       0.6699      1.00000
     18       0.6699      1.00000
     19       1.6060      1.00000
     20       1.6060      1.00000
     21       2.6201      1.00000
     22       2.6201      1.00000
     23       3.0727      1.00000
     24       3.0727      1.00000
     25       4.1114      1.00000
     26       4.1114      1.00000
     27       5.1004      1.00000
     28       5.1004      1.00000
     29       5.8781      0.00000
     30       5.8781      0.00000
     31       7.8287      0.00000
     32       7.8287      0.00000
     33      16.5327      0.00000
     34      16.5327      0.00000
     35      17.4335      0.00000
     36      17.4335      0.00000

 k-point    50 :       0.5000    0.5000    0.5000
  band No.  band energies     occupation 
      1     -46.5089      1.00000
      2     -46.5089      1.00000
      3     -46.3711      1.00000
      4     -46.3711      1.00000
      5     -46.2110      1.00000
      6     -46.2110      1.00000
      7     -12.7047      1.00000
      8     -12.7047      1.00000
      9     -12.5739      1.00000
     10     -12.5739      1.00000
     11      -1.2269      1.00000
     12      -1.2269      1.00000
     13      -1.0939      1.00000
     14      -1.0939      1.00000
     15      -0.5952      1.00000
     16      -0.5952      1.00000
     17       0.5640      1.00000
     18       0.5640      1.00000
     19       1.6098      1.00000
     20       1.6098      1.00000
     21       2.6253      1.00000
     22       2.6253      1.00000
     23       3.2480      1.00000
     24       3.2480      1.00000
     25       4.5636      1.00000
     26       4.5636      1.00000
     27       4.6770      1.00000
     28       4.6770      1.00000
     29       6.4640      0.00000
     30       6.4640      0.00000
     31       7.3036      0.00000
     32       7.3036      0.00000
     33      16.4027      0.00000
     34      16.4027      0.00000
     35      17.4609      0.00000
     36      17.4609      0.00000


--------------------------------------------------------------------------------------------------------


 soft charge-density along one line, spin component            1
         0         1         2         3         4         5         6         7         8         9
 total charge-density along one line
 
 soft charge-density along one line, spin component            2
         0         1         2         3         4         5         6         7         8         9
 total charge-density along one line
 
 pseudopotential strength for first ion, spin component:            1
-40.496  -0.000   0.032  10.120   0.000  -0.019   0.000   0.000
 -0.000 -40.595  -0.000   0.000  10.175   0.000   0.000   0.000
  0.032  -0.000 -40.496  -0.019   0.000  10.120   0.000   0.000
 10.120   0.000  -0.019   7.363  -0.000   0.005  -0.000  -0.000
  0.000  10.175   0.000  -0.000   7.351  -0.000  -0.000  -0.000
 -0.019   0.000  10.120   0.005  -0.000   7.363  -0.000  -0.000
  0.000   0.000   0.000  -0.000  -0.000  -0.000  -5.080  -0.000
  0.000   0.000   0.000  -0.000  -0.000  -0.000  -0.000  -5.093
 -0.000   0.000  -0.000   0.000  -0.000   0.000  -0.082   0.000
  0.000   0.000   0.000  -0.000  -0.000  -0.000  -0.000  -0.049
 -0.000  -0.000   0.000   0.000   0.000  -0.000   0.000   0.000
  0.000   0.000   0.000  -0.000  -0.000  -0.000  -5.044  -0.000
  0.000   0.000   0.000  -0.000  -0.000  -0.000  -0.000  -5.058
 -0.000   0.000  -0.000   0.000  -0.000   0.000  -0.092   0.000
  0.000   0.000   0.000  -0.000  -0.000  -0.000  -0.000  -0.055
 -0.000  -0.000   0.000   0.000   0.000  -0.000   0.000   0.000
 -0.000  -0.000  -0.000  -0.000  -0.000  -0.000  -0.012   0.000
 -0.000  -0.000  -0.000  -0.000  -0.000  -0.000  -0.025   0.000
 pseudopotential strength for first ion, spin component:            2
-40.532  -0.000   0.038  10.139   0.000  -0.022   0.000   0.000
 -0.000 -40.620  -0.000   0.000  10.188   0.000   0.000   0.000
  0.038  -0.000 -40.532  -0.022   0.000  10.139   0.000   0.000
 10.139   0.000  -0.022   7.358  -0.000   0.005  -0.000  -0.000
  0.000  10.188   0.000  -0.000   7.348  -0.000  -0.000  -0.000
 -0.022   0.000  10.139   0.005  -0.000   7.358  -0.000  -0.000
  0.000   0.000   0.000  -0.000  -0.000  -0.000  -5.097  -0.000
  0.000   0.000   0.000  -0.000  -0.000  -0.000  -0.000  -5.125
 -0.000   0.000  -0.000   0.000  -0.000   0.000  -0.082   0.000
  0.000   0.000   0.000  -0.000  -0.000  -0.000  -0.000  -0.040
 -0.000  -0.000   0.000   0.000   0.000  -0.000  -0.000   0.000
  0.000   0.000   0.000  -0.000  -0.000  -0.000  -5.063  -0.000
  0.000   0.000   0.000  -0.000  -0.000  -0.000  -0.000  -5.094
 -0.000   0.000  -0.000   0.000  -0.000   0.000  -0.091   0.000
  0.000   0.000   0.000  -0.000  -0.000  -0.000  -0.000  -0.045
 -0.000  -0.000   0.000   0.000   0.000  -0.000  -0.000   0.000
 -0.000  -0.000  -0.000  -0.000  -0.000  -0.000  -0.014   0.000
 -0.000  -0.000  -0.000  -0.000  -0.000  -0.000  -0.029   0.000
 total augmentation occupancy for first ion, spin component:            1
  1.995   0.000   0.000  -0.035  -0.000   0.001   0.000   0.000   0.000   0.000   0.000   0.000   0.000   0.000   0.000   0.000
  0.000   1.995   0.000  -0.000  -0.036  -0.000   0.000   0.000   0.000   0.000   0.000   0.000   0.000   0.000   0.000   0.000
  0.000   0.000   1.995   0.001  -0.000  -0.035   0.000   0.000   0.000   0.000   0.000   0.000   0.000   0.000   0.000   0.000
 -0.035  -0.000   0.001   0.173   0.000  -0.019   0.000   0.000   0.000   0.000   0.000   0.000   0.000   0.000   0.000   0.000
 -0.000  -0.036  -0.000   0.000   0.203   0.000   0.000   0.000   0.000   0.000   0.000   0.000   0.000   0.000   0.000   0.000
  0.001  -0.000  -0.035  -0.019   0.000   0.173   0.000   0.000   0.000   0.000   0.000   0.000   0.000   0.000   0.000   0.000
  0.000   0.000   0.000   0.000   0.000   0.000   3.972   0.000   1.497   0.000   0.000  -1.956  -0.000  -1.208  -0.000  -0.000
  0.000   0.000   0.000   0.000   0.000   0.000   0.000   3.511   0.000   1.269  -0.000  -0.000  -1.655  -0.000  -0.996   0.000
  0.000   0.000   0.000   0.000   0.000   0.000   1.497   0.000   3.293   0.000   0.000  -1.181  -0.000  -1.445  -0.000  -0.000
  0.000   0.000   0.000   0.000   0.000   0.000   0.000   1.269   0.000   3.511   0.000  -0.000  -0.996  -0.000  -1.655  -0.000
  0.000   0.000   0.000   0.000   0.000   0.000   0.000  -0.000   0.000   0.000   2.106  -0.000   0.000  -0.000  -0.000  -0.593
  0.000   0.000   0.000   0.000   0.000   0.000  -1.956  -0.000  -1.181  -0.000  -0.000   1.470   0.000   0.593   0.000   0.000
  0.000   0.000   0.000   0.000   0.000   0.000  -0.000  -1.655  -0.000  -0.996   0.000   0.000   1.433   0.000   0.423  -0.000
  0.000   0.000   0.000   0.000   0.000   0.000  -1.208  -0.000  -1.445  -0.000  -0.000   0.593   0.000   1.360   0.000   0.000
  0.000   0.000   0.000   0.000   0.000   0.000  -0.000  -0.996  -0.000  -1.655  -0.000   0.000   0.423   0.000   1.433   0.000
  0.000   0.000   0.000   0.000   0.000   0.000  -0.000   0.000  -0.000  -0.000  -0.593   0.000  -0.000   0.000   0.000   1.035
  0.000   0.000   0.000   0.000   0.000   0.000  -0.207  -0.000   0.218  -0.000  -0.000   0.256   0.000  -0.298   0.000   0.000
  0.000   0.000   0.000   0.000   0.000   0.000   0.022   0.000  -0.013   0.000   0.000  -0.033  -0.000   0.037  -0.000  -0.000
 total augmentation occupancy for first ion, spin component:            2
 -0.000   0.000   0.000   0.000   0.000   0.000   0.000   0.000   0.000   0.000   0.000   0.000   0.000   0.000   0.000   0.000
  0.000   0.000   0.000   0.000   0.000   0.000   0.000   0.000   0.000   0.000   0.000   0.000   0.000   0.000   0.000   0.000
  0.000   0.000  -0.000   0.000   0.000   0.000   0.000   0.000   0.000   0.000   0.000   0.000   0.000   0.000   0.000   0.000
  0.000   0.000   0.000   0.000   0.000  -0.000   0.000   0.000   0.000   0.000   0.000   0.000   0.000   0.000   0.000   0.000
  0.000   0.000   0.000   0.000   0.000   0.000   0.000   0.000   0.000   0.000   0.000   0.000   0.000   0.000   0.000   0.000
  0.000   0.000   0.000  -0.000   0.000   0.000   0.000   0.000   0.000   0.000   0.000   0.000   0.000   0.000   0.000   0.000
  0.000   0.000   0.000   0.000   0.000   0.000   0.008   0.000   0.002   0.000   0.000  -0.005  -0.000  -0.002  -0.000  -0.000
  0.000   0.000   0.000   0.000   0.000   0.000   0.000   0.007   0.000   0.003  -0.000  -0.000   0.005  -0.000  -0.011  -0.000
  0.000   0.000   0.000   0.000   0.000   0.000   0.002   0.000   0.007   0.000   0.000  -0.002  -0.000  -0.004  -0.000  -0.000
  0.000   0.000   0.000   0.000   0.000   0.000   0.000   0.003   0.000   0.007   0.000  -0.000  -0.011  -0.000   0.005   0.000
  0.000   0.000   0.000   0.000   0.000   0.000   0.000  -0.000   0.000   0.000   0.005  -0.000  -0.000  -0.000   0.000   0.020
  0.000   0.000   0.000   0.000   0.000   0.000  -0.005  -0.000  -0.002  -0.000  -0.000   0.002   0.000   0.002   0.000   0.000
  0.000   0.000   0.000   0.000   0.000   0.000  -0.000   0.005  -0.000  -0.011  -0.000   0.000  -0.030   0.000   0.031   0.000
  0.000   0.000   0.000   0.000   0.000   0.000  -0.002  -0.000  -0.004  -0.000  -0.000   0.002   0.000   0.001   0.000   0.000
  0.000   0.000   0.000   0.000   0.000   0.000  -0.000  -0.011  -0.000   0.005   0.000   0.000   0.031   0.000  -0.030  -0.000
  0.000   0.000   0.000   0.000   0.000   0.000  -0.000  -0.000  -0.000   0.000   0.020   0.000   0.000   0.000  -0.000  -0.082
  0.000   0.000   0.000   0.000   0.000   0.000  -0.003  -0.000  -0.003  -0.000  -0.000   0.002   0.000   0.000   0.000   0.000
  0.000   0.000   0.000   0.000   0.000   0.000   0.002   0.000   0.002   0.000   0.000  -0.001  -0.000  -0.000  -0.000  -0.000


------------------------ aborting loop because EDIFF is reached ----------------------------------------





 total charge

# of ion       s       p       d       tot
------------------------------------------
    1        0.334   6.323   7.657  14.314
    2        0.334   6.323   7.657  14.314
    3        1.573   3.374   0.000   4.947
    4        1.573   3.374   0.000   4.947
    5        1.573   3.374   0.000   4.947
    6        1.573   3.374   0.000   4.947
--------------------------------------------------
tot          6.959  26.144  15.314  48.417



 magnetization (x)

# of ion       s       p       d       tot
------------------------------------------
    1        0.000   0.001  -0.067  -0.066
    2        0.000   0.001  -0.067  -0.066
    3       -0.001  -0.041   0.000  -0.042
    4       -0.001  -0.041   0.000  -0.042
    5       -0.001  -0.041   0.000  -0.042
    6       -0.001  -0.041   0.000  -0.042
--------------------------------------------------
tot         -0.002  -0.163  -0.134  -0.299
 
    CHARGE:  cpu time      0.3037: real time      0.3037
    FORLOC:  cpu time      0.0015: real time      0.0015
    FORNL :  cpu time      0.6425: real time      0.6425
    FORCOR:  cpu time      0.6305: real time      0.6310
    FORHAR:  cpu time      0.0057: real time      0.0057
    MIXING:  cpu time      0.0017: real time      0.0017
    OFIELD:  cpu time      0.0000: real time      0.0000

 ---------------------------------------------------------------------------------------------

         DFTD3 V3.0 Rev 1        
 DF pbe       
 parameters
 k1-k3        =   16.0000    1.3333   -4.0000
 Edisp (eV)   -1.41402

 E6    (eV) :    -0.8848
 E8    (eV) :    -0.5293
 % E8        : 37.43
    FORVDW:  cpu time      0.0122: real time      0.0123

 VOLUME and BASIS-vectors are now :
 -----------------------------------------------------------------------------
  energy-cutoff  :      550.00
  volume of cell :       64.34
      direct lattice vectors                 reciprocal lattice vectors
     4.522230460  0.000000000  0.000000000     0.221129818 -0.000000000  0.000000000
     0.000000000  4.522230460  0.000000000     0.000000000  0.221129818  0.000000000
     0.000000000  0.000000000  3.146273630    -0.000000000 -0.000000000  0.317836310

  length of vectors
     4.522230460  4.522230460  3.146273630     0.221129818  0.221129818  0.317836310


 FORCES acting on ions
    electron-ion (+dipol)            ewald-force                    non-local-force                 convergence-correction
 -----------------------------------------------------------------------------------------------
   0.207E-11 0.726E-11 0.679E-11   0.284E-13 0.000E+00 0.158E-13   0.264E-23 0.000E+00 0.000E+00   0.101E-12 -.340E-13 -.570E-14
   0.216E-13 0.203E-13 -.130E-11   0.284E-13 0.114E-12 -.100E-13   0.180E-23 0.000E+00 0.000E+00   0.752E-13 0.442E-13 0.124E-13
   0.374E+02 -.374E+02 0.598E-11   -.386E+02 0.386E+02 0.163E-13   0.119E+01 -.119E+01 -.451E-16   0.560E-04 -.560E-04 0.109E-13
   -.374E+02 0.374E+02 0.632E-12   0.386E+02 -.386E+02 -.574E-14   -.119E+01 0.119E+01 0.451E-16   -.560E-04 0.560E-04 -.165E-13
   0.374E+02 0.374E+02 -.108E-07   -.386E+02 -.386E+02 0.191E-12   0.119E+01 0.119E+01 0.111E-15   0.560E-04 0.560E-04 -.211E-11
   -.374E+02 -.374E+02 0.108E-07   0.386E+02 0.386E+02 -.209E-12   -.119E+01 -.119E+01 -.111E-15   -.560E-04 -.560E-04 0.212E-11
 -----------------------------------------------------------------------------------------------
   -.281E-12 0.108E-10 0.224E-11   -.711E-14 0.355E-13 -.172E-14   0.000E+00 -.222E-15 0.000E+00   0.186E-12 -.251E-13 0.537E-14
 
 
 POSITION                                       TOTAL-FORCE (eV/Angst)
 -----------------------------------------------------------------------------------
      2.26112      2.26112      1.57314        -0.000000      0.000000     -0.000000
      0.00000      0.00000      0.00000        -0.000000      0.000000     -0.000000
      3.65465      0.86758      1.57314        -0.070346      0.070346      0.000000
      0.86758      3.65465      1.57314         0.070346     -0.070346     -0.000000
      1.39353      1.39353      0.00000        -0.070346     -0.070346     -0.000000
      3.12870      3.12870      0.00000         0.070346      0.070346      0.000000
 -----------------------------------------------------------------------------------
    total drift:                               -0.000000      0.000000      0.000000


--------------------------------------------------------------------------------------------------------



  FREE ENERGIE OF THE ION-ELECTRON SYSTEM (eV)
  ---------------------------------------------------
  free  energy   TOTEN  =       -33.52651672 eV

  energy  without entropy=      -33.52149304  energy(sigma->0) =      -33.52400488
 


--------------------------------------------------------------------------------------------------------


    POTLOK:  cpu time      0.6319: real time      0.6320


--------------------------------------------------------------------------------------------------------


     LOOP+:  cpu time     66.5569: real time     67.1609
    4ORBIT:  cpu time      0.0000: real time      0.0000



 total charge

# of ion       s       p       d       tot
------------------------------------------
    1        0.334   6.323   7.657  14.314
    2        0.334   6.323   7.657  14.314
    3        1.573   3.374   0.000   4.947
    4        1.573   3.374   0.000   4.947
    5        1.573   3.374   0.000   4.947
    6        1.573   3.374   0.000   4.947
--------------------------------------------------
tot          6.959  26.144  15.314  48.417



 magnetization (x)

# of ion       s       p       d       tot
------------------------------------------
    1        0.000   0.001  -0.067  -0.066
    2        0.000   0.001  -0.067  -0.066
    3       -0.001  -0.041   0.000  -0.042
    4       -0.001  -0.041   0.000  -0.042
    5       -0.001  -0.041   0.000  -0.042
    6       -0.001  -0.041   0.000  -0.042
--------------------------------------------------
tot         -0.002  -0.163  -0.134  -0.299
 

 total amount of memory used by VASP MPI-rank0   103251. kBytes
=======================================================================

   base      :      30000. kBytes
   nonl-proj :      27600. kBytes
   fftplans  :       9397. kBytes
   grid      :       7672. kBytes
   one-center:        186. kBytes
   wavefun   :      28396. kBytes
 
  
  
 General timing and accounting informations for this job:
 ========================================================
  
                  Total CPU time used (sec):       67.974
                            User time (sec):       65.773
                          System time (sec):        2.201
                         Elapsed time (sec):       68.643
  
                   Maximum memory used (kb):      388872.
                   Average memory used (kb):          N/A
  
                          Minor page faults:       414090
                          Major page faults:           11
                 Voluntary context switches:          382
