114
Lattice="12.303473692417112 0.0 0.0 0.0 12.303473692417114 0.0 0.0 0.0 29.165420746594243" Properties=species:S:1:pos:R:3:move_mask:L:1:momenta:R:3 adsorbate_info="_JSON {\"site\": {\"coordinates\": [2.352748441457291, 7.736460066072472, 10.417121462987533], \"connectivity\": 1, \"topology\": [14], \"n_vector\": [-0.004738031166328043, 0.03822205525705669, 0.9992580375221374], \"h_vector\": [1.0, 0.0, 0.0], \"site_formula\": {\"O\": 1}}, \"smiles\": \"Cl[C]=O\", \"mdf\": 2.549949656649238, \"adsorbate_formula\": \"CO\"}" mace_E=-574.4836170269884 converged=T n_steps=36 d_min=2.0140963563469954 site_type=bridge dE_rel_meV=0 original_idx=30 rank=2 E_MACE=-575.2718264897268 pbc="T T T"
O        8.47849898      11.57378784       9.34741901  T       0.00000000       0.00000000       0.00000000
O       11.50869076       5.36657189       9.37719347  T       0.00000000       0.00000000       0.00000000
O       11.55601999       1.61878791      10.57523645  T       0.00000000       0.00000000       0.00000000
O       11.51105082      11.52408824       9.37521568  T       0.00000000       0.00000000       0.00000000
O        8.44778545       7.80637233      10.53891206  T       0.00000000       0.00000000       0.00000000
O        5.35503793      11.52234501       9.37701414  T       0.00000000       0.00000000       0.00000000
O        5.40501639       7.76929861      10.56673383  T       0.00000000       0.00000000       0.00000000
O        8.47686116       5.41878218       9.34966157  T       0.00000000       0.00000000       0.00000000
O       11.55584233       7.77349964      10.56381542  T       0.00000000       0.00000000       0.00000000
O        2.32497896       5.41827166       9.34715159  T       0.00000000       0.00000000       0.00000000
O        2.29547814       1.65539147      10.54012629  T       0.00000000       0.00000000       0.00000000
O        2.32300688      11.57303656       9.34965044  T       0.00000000       0.00000000       0.00000000
O        5.36055834       5.36389557       9.37356264  T       0.00000000       0.00000000       0.00000000
O        5.40373832       1.61563726      10.57914298  T       0.00000000       0.00000000       0.00000000
O        2.30134132       7.80401156      10.53649331  T       0.00000000       0.00000000       0.00000000
O        8.44863470       1.65239371      10.53972966  T       0.00000000       0.00000000       0.00000000
Pd       5.53656316       9.22760527       1.50000000  F       0.00000000       0.00000000       0.00000000
Pd       6.11290871       7.45283505       7.39687579  T       0.00000000       0.00000000       0.00000000
Pd       4.28815433       6.78245218       5.40241719  F       0.00000000       0.00000000       0.00000000
Pd       6.15173685       7.38208422       3.44535000  F       0.00000000       0.00000000       0.00000000
Pd       7.33608218       3.64629838       7.35399644  T       0.00000000       0.00000000       0.00000000
Pd       5.51948843       3.08419342       5.37702261  F       0.00000000       0.00000000       0.00000000
Pd       6.76691053       5.53656316       1.50000000  F       0.00000000       0.00000000       0.00000000
Pd       7.38208422       9.84277895       3.44535000  F       0.00000000       0.00000000       0.00000000
Pd       7.99725790       7.99725790       1.50000000  F       0.00000000       0.00000000       0.00000000
Pd       5.51951598       9.23590192       5.37700272  F       0.00000000       0.00000000       0.00000000
Pd       8.00616182       7.98477587       5.40628129  F       0.00000000       0.00000000       0.00000000
Pd       6.76691053      11.68830001       1.50000000  F       0.00000000       0.00000000       0.00000000
Pd       8.61243158       0.00000000       3.44535000  F       0.00000000       0.00000000       0.00000000
Pd       6.75606179      11.70364973       5.37992114  F       0.00000000       0.00000000       0.00000000
Pd       8.55901988      -0.01265703       7.40326901  T       0.00000000       0.00000000       0.00000000
Pd       9.84277895       8.61243158       3.44535000  F       0.00000000       0.00000000       0.00000000
Pd       7.38208422       3.69104211       3.44535000  F       0.00000000       0.00000000       0.00000000
Pd       3.69104211       8.61243158       3.44535000  F       0.00000000       0.00000000       0.00000000
Pd       9.82725252       8.61478669       7.49893184  T       0.00000000       0.00000000       0.00000000
Pd       9.22760527      10.45795264       1.50000000  F       0.00000000       0.00000000       0.00000000
Pd       7.33452860       9.79748157       7.35268464  T       0.00000000       0.00000000       0.00000000
Pd       1.84552105       7.99725790       1.50000000  F       0.00000000       0.00000000       0.00000000
Pd      11.68830001       9.22760527       1.50000000  F       0.00000000       0.00000000       0.00000000
Pd       0.60431863      11.70356305       5.37989931  F       0.00000000       0.00000000       0.00000000
Pd       8.61243158       6.15173685       3.44535000  F       0.00000000       0.00000000       0.00000000
Pd       6.75605293       5.55187564       5.37990856  F       0.00000000       0.00000000       0.00000000
Pd       8.56062224       6.13824004       7.40442896  T       0.00000000       0.00000000       0.00000000
Pd       7.99725790       1.84552105       1.50000000  F       0.00000000       0.00000000       0.00000000
Pd       9.84277895       2.46069474       3.44535000  F       0.00000000       0.00000000       0.00000000
Pd       8.00617313       1.83308050       5.40627808  F       0.00000000       0.00000000       0.00000000
Pd       9.82713195       2.46306454       7.49808747  T       0.00000000       0.00000000       0.00000000
Pd       9.22760527       4.30621579       1.50000000  F       0.00000000       0.00000000       0.00000000
Pd       4.92138948       4.92138948       3.44535000  F       0.00000000       0.00000000       0.00000000
Pd       9.22722207       4.29761474       5.41287912  F       0.00000000       0.00000000       0.00000000
Pd       4.93817148       4.95637980       7.39508136  T       0.00000000       0.00000000       0.00000000
Pd      10.45795264       6.76691053       1.50000000  F       0.00000000       0.00000000       0.00000000
Pd       0.00000000       7.38208422       3.44535000  F       0.00000000       0.00000000       0.00000000
Pd      10.43991375       6.78245558       5.40242713  F       0.00000000       0.00000000       0.00000000
Pd      12.26470159       7.45502646       7.39473323  T       0.00000000       0.00000000       0.00000000
Pd       4.92138948      11.07312632       3.44535000  F       0.00000000       0.00000000       0.00000000
Pd       1.23034737       9.84277895       3.44535000  F       0.00000000       0.00000000       0.00000000
Pd      11.67120661       9.23591801       5.37701028  F       0.00000000       0.00000000       0.00000000
Pd       1.18459893       9.79870217       7.35368993  T       0.00000000       0.00000000       0.00000000
Pd       0.61517368      11.68830001       1.50000000  F       0.00000000       0.00000000       0.00000000
Pd       2.46069474       0.00000000       3.44535000  F       0.00000000       0.00000000       0.00000000
Pd       2.40703274      -0.01021629       7.40478611  T       0.00000000       0.00000000       0.00000000
Pd       9.22719689      10.44932842       5.41286416  F       0.00000000       0.00000000       0.00000000
Pd       3.67494607       8.61572732       7.49857882  T       0.00000000       0.00000000       0.00000000
Pd       4.30621579       0.61517368       1.50000000  F       0.00000000       0.00000000       0.00000000
Pd      11.07312632       4.92138948       3.44535000  F       0.00000000       0.00000000       0.00000000
Pd       4.30621579       6.76691053       1.50000000  F       0.00000000       0.00000000       0.00000000
Pd       3.67693436       2.46383523       7.50138477  T       0.00000000       0.00000000       0.00000000
Pd       2.40802290       6.13762028       7.40214210  T       0.00000000       0.00000000       0.00000000
Pd       0.60433818       5.55187436       5.37993065  F       0.00000000       0.00000000       0.00000000
Pd       2.46069474       6.15173685       3.44535000  F       0.00000000       0.00000000       0.00000000
Pd       0.61517368       5.53656316       1.50000000  F       0.00000000       0.00000000       0.00000000
Pd       1.18449934       3.64418540       7.35142918  T       0.00000000       0.00000000       0.00000000
Pd      11.67123156       3.08419612       5.37703229  F       0.00000000       0.00000000       0.00000000
Pd       6.91692344       6.62808964       9.90930667  T       0.00000000       0.00000000       0.00000000
Pd       1.23034737       3.69104211       3.44535000  F       0.00000000       0.00000000       0.00000000
Pd      12.26297058       1.30164011       7.39586876  T       0.00000000       0.00000000       0.00000000
Pd      10.43990395       0.63072067       5.40242717  F       0.00000000       0.00000000       0.00000000
Pd       0.00000000       1.23034737       3.44535000  F       0.00000000       0.00000000       0.00000000
Pd       1.84552105       1.84552105       1.50000000  F       0.00000000       0.00000000       0.00000000
Pd      10.45795264       0.61517368       1.50000000  F       0.00000000       0.00000000       0.00000000
Pd      11.08792913      11.11004051       7.39633394  T       0.00000000       0.00000000       0.00000000
Pd       3.07550809      10.44932540       5.41290581  F       0.00000000       0.00000000       0.00000000
Pd       3.69104211       2.46069474       3.44535000  F       0.00000000       0.00000000       0.00000000
Pd       1.85442396       1.83305046       5.40626716  F       0.00000000       0.00000000       0.00000000
Pd      11.68830001       3.07586842       1.50000000  F       0.00000000       0.00000000       0.00000000
Pd       0.76511624       0.48178250       9.91226392  T       0.00000000       0.00000000       0.00000000
Pd       2.33299136       3.44102296       9.75934073  T       0.00000000       0.00000000       0.00000000
Pd       3.85816115       6.66179448       9.91270607  T       0.00000000       0.00000000       0.00000000
Pd       6.15173685       1.23034737       3.44535000  F       0.00000000       0.00000000       0.00000000
Pd       4.28818081       0.63072761       5.40241929  F       0.00000000       0.00000000       0.00000000
Pd       6.11320653       1.30303854       7.39645003  T       0.00000000       0.00000000       0.00000000
Pd       5.53656316       3.07586842       1.50000000  F       0.00000000       0.00000000       0.00000000
Pd       1.85444455       7.98478761       5.40627529  F       0.00000000       0.00000000       0.00000000
Pd       5.40351244       3.35245519       9.68912922  T       0.00000000       0.00000000       0.00000000
Pd       3.07586842      10.45795264       1.50000000  F       0.00000000       0.00000000       0.00000000
Pd       3.07586842       4.30621579       1.50000000  F       0.00000000       0.00000000       0.00000000
Pd       3.07547731       4.29761827       5.41291946  F       0.00000000       0.00000000       0.00000000
Pd      11.09123766       4.95905000       7.39923381  T       0.00000000       0.00000000       0.00000000
Pd      11.07312632      11.07312632       3.44535000  F       0.00000000       0.00000000       0.00000000
Pd      10.00821065       0.51484597       9.91612243  T       0.00000000       0.00000000       0.00000000
Pd       6.91639821       0.47894238       9.91322132  T       0.00000000       0.00000000       0.00000000
Pd       8.48786333       9.59341483       9.75711351  T       0.00000000       0.00000000       0.00000000
Pd       0.76570271       6.62761322       9.91000424  T       0.00000000       0.00000000       0.00000000
Pd       5.40081876       9.50661540       9.67665606  T       0.00000000       0.00000000       0.00000000
Pd      11.55470718       3.35582770       9.68777636  T       0.00000000       0.00000000       0.00000000
Pd       8.48876537       3.43918027       9.75992937  T       0.00000000       0.00000000       0.00000000
Pd      10.00577478       6.66498042       9.91538563  T       0.00000000       0.00000000       0.00000000
Pd       3.85400584       0.51443713       9.91811258  T       0.00000000       0.00000000       0.00000000
Pd       2.33332951       9.59298612       9.76014410  T       0.00000000       0.00000000       0.00000000
Pd       4.93568109      11.11378788       7.39650867  T       0.00000000       0.00000000       0.00000000
Pd      11.55759863       9.51315152       9.68282490  T       0.00000000       0.00000000       0.00000000
C        0.56530595       7.84682186      13.43202310  T       0.00000000       0.00000000       0.00000000
O        0.43842477       6.70898673      13.51184141  T       0.00000000       0.00000000       0.00000000
