114
Lattice="12.303473692417112 0.0 0.0 0.0 12.303473692417114 0.0 0.0 0.0 29.165420746594243" Properties=species:S:1:pos:R:3:move_mask:L:1:momenta:R:3 adsorbate_info="_JSON {\"site\": {\"coordinates\": [9.026571866934779, 0.4022026917191177, 9.845566104965442], \"connectivity\": 3, \"topology\": [0, 15, 100], \"n_vector\": [0.03773755246484246, -0.3212900842794456, 0.9462285975797127], \"h_vector\": [0.765029153123844, -0.5739718932729583, -0.2920387998250744], \"site_formula\": {\"O\": 2, \"Pd\": 1}}, \"smiles\": \"Cl[C]=O\", \"mdf\": 2.1337266152845147, \"adsorbate_formula\": \"CO\"}" mace_E=-574.4842671384133 converged=T n_steps=41 d_min=2.010865762609294 site_type=atop dE_rel_meV=0 original_idx=118 rank=3 E_MACE=-575.2707197347195 pbc="T T T"
O        8.47426290      11.59589997       9.36459384  T       0.00000000       0.00000000       0.00000000
O       11.50080358       5.38527104       9.38026623  T       0.00000000       0.00000000       0.00000000
O       11.55953542       1.63787651      10.58385111  T       0.00000000       0.00000000       0.00000000
O       11.50065619      11.54027171       9.38211385  T       0.00000000       0.00000000       0.00000000
O        8.43764904       7.82548577      10.53518577  T       0.00000000       0.00000000       0.00000000
O        5.35580655      11.54305405       9.38193183  T       0.00000000       0.00000000       0.00000000
O        5.39663319       7.79086368      10.56874564  T       0.00000000       0.00000000       0.00000000
O        8.46896305       5.43836113       9.34460417  T       0.00000000       0.00000000       0.00000000
O       11.54460143       7.78697665      10.57063878  T       0.00000000       0.00000000       0.00000000
O        2.31853174       5.43546702       9.35014774  T       0.00000000       0.00000000       0.00000000
O        2.29059629       1.66739575      10.52786981  T       0.00000000       0.00000000       0.00000000
O        2.32225798      11.58515795       9.34606914  T       0.00000000       0.00000000       0.00000000
O        5.34763144       5.38970537       9.37693569  T       0.00000000       0.00000000       0.00000000
O        5.39145891       1.64307891      10.57902750  T       0.00000000       0.00000000       0.00000000
O        2.28588493       7.82187583      10.53256637  T       0.00000000       0.00000000       0.00000000
O        8.44493868       1.68258194      10.53592487  T       0.00000000       0.00000000       0.00000000
Pd       5.53656316       9.22760527       1.50000000  F       0.00000000       0.00000000       0.00000000
Pd       6.11380450       7.45799911       7.39200487  T       0.00000000       0.00000000       0.00000000
Pd       4.28815433       6.78245218       5.40241719  F       0.00000000       0.00000000       0.00000000
Pd       6.15173685       7.38208422       3.44535000  F       0.00000000       0.00000000       0.00000000
Pd       7.33240164       3.64970955       7.35244767  T       0.00000000       0.00000000       0.00000000
Pd       5.51948843       3.08419342       5.37702261  F       0.00000000       0.00000000       0.00000000
Pd       6.76691053       5.53656316       1.50000000  F       0.00000000       0.00000000       0.00000000
Pd       7.38208422       9.84277895       3.44535000  F       0.00000000       0.00000000       0.00000000
Pd       7.99725790       7.99725790       1.50000000  F       0.00000000       0.00000000       0.00000000
Pd       5.51951598       9.23590192       5.37700272  F       0.00000000       0.00000000       0.00000000
Pd       8.00616182       7.98477587       5.40628129  F       0.00000000       0.00000000       0.00000000
Pd       6.76691053      11.68830001       1.50000000  F       0.00000000       0.00000000       0.00000000
Pd       8.61243158       0.00000000       3.44535000  F       0.00000000       0.00000000       0.00000000
Pd       6.75606179      11.70364973       5.37992114  F       0.00000000       0.00000000       0.00000000
Pd       8.56111053      -0.01580930       7.41075398  T       0.00000000       0.00000000       0.00000000
Pd       9.84277895       8.61243158       3.44535000  F       0.00000000       0.00000000       0.00000000
Pd       7.38208422       3.69104211       3.44535000  F       0.00000000       0.00000000       0.00000000
Pd       3.69104211       8.61243158       3.44535000  F       0.00000000       0.00000000       0.00000000
Pd       9.82038050       8.61491566       7.50596290  T       0.00000000       0.00000000       0.00000000
Pd       9.22760527      10.45795264       1.50000000  F       0.00000000       0.00000000       0.00000000
Pd       7.33752328       9.80438533       7.35538731  T       0.00000000       0.00000000       0.00000000
Pd       1.84552105       7.99725790       1.50000000  F       0.00000000       0.00000000       0.00000000
Pd      11.68830001       9.22760527       1.50000000  F       0.00000000       0.00000000       0.00000000
Pd       0.60431863      11.70356305       5.37989931  F       0.00000000       0.00000000       0.00000000
Pd       8.61243158       6.15173685       3.44535000  F       0.00000000       0.00000000       0.00000000
Pd       6.75605293       5.55187564       5.37990856  F       0.00000000       0.00000000       0.00000000
Pd       8.55944620       6.13821603       7.40105898  T       0.00000000       0.00000000       0.00000000
Pd       7.99725790       1.84552105       1.50000000  F       0.00000000       0.00000000       0.00000000
Pd       9.84277895       2.46069474       3.44535000  F       0.00000000       0.00000000       0.00000000
Pd       8.00617313       1.83308050       5.40627808  F       0.00000000       0.00000000       0.00000000
Pd       9.82164526       2.46001409       7.50228652  T       0.00000000       0.00000000       0.00000000
Pd       9.22760527       4.30621579       1.50000000  F       0.00000000       0.00000000       0.00000000
Pd       4.92138948       4.92138948       3.44535000  F       0.00000000       0.00000000       0.00000000
Pd       9.22722207       4.29761474       5.41287912  F       0.00000000       0.00000000       0.00000000
Pd       4.93345760       4.96180477       7.39755675  T       0.00000000       0.00000000       0.00000000
Pd      10.45795264       6.76691053       1.50000000  F       0.00000000       0.00000000       0.00000000
Pd       0.00000000       7.38208422       3.44535000  F       0.00000000       0.00000000       0.00000000
Pd      10.43991375       6.78245558       5.40242713  F       0.00000000       0.00000000       0.00000000
Pd      12.26182309       7.44996622       7.38913626  T       0.00000000       0.00000000       0.00000000
Pd       4.92138948      11.07312632       3.44535000  F       0.00000000       0.00000000       0.00000000
Pd       1.23034737       9.84277895       3.44535000  F       0.00000000       0.00000000       0.00000000
Pd      11.67120661       9.23591801       5.37701028  F       0.00000000       0.00000000       0.00000000
Pd       1.17970167       9.80063295       7.35079912  T       0.00000000       0.00000000       0.00000000
Pd       0.61517368      11.68830001       1.50000000  F       0.00000000       0.00000000       0.00000000
Pd       2.46069474       0.00000000       3.44535000  F       0.00000000       0.00000000       0.00000000
Pd       2.40897718      -0.01174741       7.40069032  T       0.00000000       0.00000000       0.00000000
Pd       9.22719689      10.44932842       5.41286416  F       0.00000000       0.00000000       0.00000000
Pd       3.67103677       8.62051841       7.49885361  T       0.00000000       0.00000000       0.00000000
Pd       4.30621579       0.61517368       1.50000000  F       0.00000000       0.00000000       0.00000000
Pd      11.07312632       4.92138948       3.44535000  F       0.00000000       0.00000000       0.00000000
Pd       4.30621579       6.76691053       1.50000000  F       0.00000000       0.00000000       0.00000000
Pd       3.67335821       2.46661567       7.50104160  T       0.00000000       0.00000000       0.00000000
Pd       2.40966414       6.14118652       7.40336601  T       0.00000000       0.00000000       0.00000000
Pd       0.60433818       5.55187436       5.37993065  F       0.00000000       0.00000000       0.00000000
Pd       2.46069474       6.15173685       3.44535000  F       0.00000000       0.00000000       0.00000000
Pd       0.61517368       5.53656316       1.50000000  F       0.00000000       0.00000000       0.00000000
Pd       1.18585943       3.65110912       7.35128100  T       0.00000000       0.00000000       0.00000000
Pd      11.67123156       3.08419612       5.37703229  F       0.00000000       0.00000000       0.00000000
Pd       6.91003040       6.64880664       9.91045945  T       0.00000000       0.00000000       0.00000000
Pd       1.23034737       3.69104211       3.44535000  F       0.00000000       0.00000000       0.00000000
Pd      12.26323325       1.30269563       7.39209822  T       0.00000000       0.00000000       0.00000000
Pd      10.43990395       0.63072067       5.40242717  F       0.00000000       0.00000000       0.00000000
Pd       0.00000000       1.23034737       3.44535000  F       0.00000000       0.00000000       0.00000000
Pd       1.84552105       1.84552105       1.50000000  F       0.00000000       0.00000000       0.00000000
Pd      10.45795264       0.61517368       1.50000000  F       0.00000000       0.00000000       0.00000000
Pd      11.08014733      11.11040065       7.39997288  T       0.00000000       0.00000000       0.00000000
Pd       3.07550809      10.44932540       5.41290581  F       0.00000000       0.00000000       0.00000000
Pd       3.69104211       2.46069474       3.44535000  F       0.00000000       0.00000000       0.00000000
Pd       1.85442396       1.83305046       5.40626716  F       0.00000000       0.00000000       0.00000000
Pd      11.68830001       3.07586842       1.50000000  F       0.00000000       0.00000000       0.00000000
Pd       0.76258078       0.49196343       9.91434163  T       0.00000000       0.00000000       0.00000000
Pd       2.32925828       3.45563530       9.75599926  T       0.00000000       0.00000000       0.00000000
Pd       3.84783247       6.68729216       9.91123541  T       0.00000000       0.00000000       0.00000000
Pd       6.15173685       1.23034737       3.44535000  F       0.00000000       0.00000000       0.00000000
Pd       4.28818081       0.63072761       5.40241929  F       0.00000000       0.00000000       0.00000000
Pd       6.11444564       1.30160862       7.39289371  T       0.00000000       0.00000000       0.00000000
Pd       5.53656316       3.07586842       1.50000000  F       0.00000000       0.00000000       0.00000000
Pd       1.85444455       7.98478761       5.40627529  F       0.00000000       0.00000000       0.00000000
Pd       5.38977964       3.37340321       9.67889355  T       0.00000000       0.00000000       0.00000000
Pd       3.07586842      10.45795264       1.50000000  F       0.00000000       0.00000000       0.00000000
Pd       3.07586842       4.30621579       1.50000000  F       0.00000000       0.00000000       0.00000000
Pd       3.07547731       4.29761827       5.41291946  F       0.00000000       0.00000000       0.00000000
Pd      11.08087395       4.95327047       7.40045307  T       0.00000000       0.00000000       0.00000000
Pd      11.07312632      11.07312632       3.44535000  F       0.00000000       0.00000000       0.00000000
Pd      10.00564287       0.53577789       9.93034387  T       0.00000000       0.00000000       0.00000000
Pd       6.91328787       0.50235832       9.92427654  T       0.00000000       0.00000000       0.00000000
Pd       8.48016736       9.61593157       9.76621214  T       0.00000000       0.00000000       0.00000000
Pd       0.75706712       6.64635986       9.91096672  T       0.00000000       0.00000000       0.00000000
Pd       5.40230999       9.52548166       9.67571205  T       0.00000000       0.00000000       0.00000000
Pd      11.55263370       3.36830445       9.68164879  T       0.00000000       0.00000000       0.00000000
Pd       8.48394079       3.46324553       9.75585541  T       0.00000000       0.00000000       0.00000000
Pd       9.99785075       6.68390322       9.91438654  T       0.00000000       0.00000000       0.00000000
Pd       3.85182982       0.53216349       9.91203306  T       0.00000000       0.00000000       0.00000000
Pd       2.32888932       9.60687687       9.75353217  T       0.00000000       0.00000000       0.00000000
Pd       4.93569809      11.11424381       7.39975651  T       0.00000000       0.00000000       0.00000000
Pd      11.53945507       9.52249628       9.67823498  T       0.00000000       0.00000000       0.00000000
C        8.12160145       1.49511674      13.58254631  T       0.00000000       0.00000000       0.00000000
O        7.58536186       0.48846847      13.45151414  T       0.00000000       0.00000000       0.00000000
