114
Lattice="12.303473692417112 0.0 0.0 0.0 12.303473692417114 0.0 0.0 0.0 29.165420746594243" Properties=species:S:1:pos:R:3:move_mask:L:1:momenta:R:3 adsorbate_info="_JSON {\"site\": {\"coordinates\": [0.8278537257592272, 4.4249780215420484, 9.713000844164783], \"connectivity\": 3, \"topology\": [87, 103, 105], \"n_vector\": [-0.04950287843786634, 0.02547449084723066, 0.9984490549559554], \"h_vector\": [-0.9994812825948264, -0.0173490202763374, -0.027132586276507456], \"site_formula\": {\"Pd\": 3}}, \"smiles\": \"Cl[C]=O\", \"mdf\": 2.6359595187583698, \"adsorbate_formula\": \"CO\"}" mace_E=-575.039017343264 converged=T n_steps=48 d_min=2.031357041942712 site_type=unknown dE_rel_meV=0 original_idx=9 rank=7 E_MACE=-575.2693984813517 pbc="T T T"
O        8.47830603      11.62861397       9.35996799  T       0.00000000       0.00000000       0.00000000
O       11.50575698       5.42655611       9.37126847  T       0.00000000       0.00000000       0.00000000
O       11.56270315       1.66516306      10.56986473  T       0.00000000       0.00000000       0.00000000
O       11.49564222      11.57582902       9.35988619  T       0.00000000       0.00000000       0.00000000
O        8.45163261       7.86271685      10.53813553  T       0.00000000       0.00000000       0.00000000
O        5.36634499      11.57280187       9.36330149  T       0.00000000       0.00000000       0.00000000
O        5.41156964       7.82505570      10.56605019  T       0.00000000       0.00000000       0.00000000
O        8.48628303       5.46993535       9.36147458  T       0.00000000       0.00000000       0.00000000
O       11.55682259       7.83127085      10.57684564  T       0.00000000       0.00000000       0.00000000
O        2.31940913       5.49995035       9.31523606  T       0.00000000       0.00000000       0.00000000
O        2.29147434       1.61065731      10.59584403  T       0.00000000       0.00000000       0.00000000
O        2.32823138      11.60091907       9.34453469  T       0.00000000       0.00000000       0.00000000
O        5.36868762       5.41866503       9.36471973  T       0.00000000       0.00000000       0.00000000
O        5.40075910       1.66175381      10.57752013  T       0.00000000       0.00000000       0.00000000
O        2.30631899       7.85414048      10.53618637  T       0.00000000       0.00000000       0.00000000
O        8.44751469       1.70796967      10.55616452  T       0.00000000       0.00000000       0.00000000
Pd       5.53656316       9.22760527       1.50000000  F       0.00000000       0.00000000       0.00000000
Pd       6.11873874       7.46146574       7.38502315  T       0.00000000       0.00000000       0.00000000
Pd       4.28815433       6.78245218       5.40241719  F       0.00000000       0.00000000       0.00000000
Pd       6.15173685       7.38208422       3.44535000  F       0.00000000       0.00000000       0.00000000
Pd       7.33842693       3.65704692       7.35297806  T       0.00000000       0.00000000       0.00000000
Pd       5.51948843       3.08419342       5.37702261  F       0.00000000       0.00000000       0.00000000
Pd       6.76691053       5.53656316       1.50000000  F       0.00000000       0.00000000       0.00000000
Pd       7.38208422       9.84277895       3.44535000  F       0.00000000       0.00000000       0.00000000
Pd       7.99725790       7.99725790       1.50000000  F       0.00000000       0.00000000       0.00000000
Pd       5.51951598       9.23590192       5.37700272  F       0.00000000       0.00000000       0.00000000
Pd       8.00616182       7.98477587       5.40628129  F       0.00000000       0.00000000       0.00000000
Pd       6.76691053      11.68830001       1.50000000  F       0.00000000       0.00000000       0.00000000
Pd       8.61243158       0.00000000       3.44535000  F       0.00000000       0.00000000       0.00000000
Pd       6.75606179      11.70364973       5.37992114  F       0.00000000       0.00000000       0.00000000
Pd       8.55653084      -0.00173521       7.40475046  T       0.00000000       0.00000000       0.00000000
Pd       9.84277895       8.61243158       3.44535000  F       0.00000000       0.00000000       0.00000000
Pd       7.38208422       3.69104211       3.44535000  F       0.00000000       0.00000000       0.00000000
Pd       3.69104211       8.61243158       3.44535000  F       0.00000000       0.00000000       0.00000000
Pd       9.81746034       8.61902257       7.50442585  T       0.00000000       0.00000000       0.00000000
Pd       9.22760527      10.45795264       1.50000000  F       0.00000000       0.00000000       0.00000000
Pd       7.33318654       9.81150901       7.35492630  T       0.00000000       0.00000000       0.00000000
Pd       1.84552105       7.99725790       1.50000000  F       0.00000000       0.00000000       0.00000000
Pd      11.68830001       9.22760527       1.50000000  F       0.00000000       0.00000000       0.00000000
Pd       0.60431863      11.70356305       5.37989931  F       0.00000000       0.00000000       0.00000000
Pd       8.61243158       6.15173685       3.44535000  F       0.00000000       0.00000000       0.00000000
Pd       6.75605293       5.55187564       5.37990856  F       0.00000000       0.00000000       0.00000000
Pd       8.56242813       6.14075796       7.40716095  T       0.00000000       0.00000000       0.00000000
Pd       7.99725790       1.84552105       1.50000000  F       0.00000000       0.00000000       0.00000000
Pd       9.84277895       2.46069474       3.44535000  F       0.00000000       0.00000000       0.00000000
Pd       8.00617313       1.83308050       5.40627808  F       0.00000000       0.00000000       0.00000000
Pd       9.82295441       2.47352872       7.50325515  T       0.00000000       0.00000000       0.00000000
Pd       9.22760527       4.30621579       1.50000000  F       0.00000000       0.00000000       0.00000000
Pd       4.92138948       4.92138948       3.44535000  F       0.00000000       0.00000000       0.00000000
Pd       9.22722207       4.29761474       5.41287912  F       0.00000000       0.00000000       0.00000000
Pd       4.93168887       4.96951380       7.39615921  T       0.00000000       0.00000000       0.00000000
Pd      10.45795264       6.76691053       1.50000000  F       0.00000000       0.00000000       0.00000000
Pd       0.00000000       7.38208422       3.44535000  F       0.00000000       0.00000000       0.00000000
Pd      10.43991375       6.78245558       5.40242713  F       0.00000000       0.00000000       0.00000000
Pd      12.25890048       7.46346349       7.38352621  T       0.00000000       0.00000000       0.00000000
Pd       4.92138948      11.07312632       3.44535000  F       0.00000000       0.00000000       0.00000000
Pd       1.23034737       9.84277895       3.44535000  F       0.00000000       0.00000000       0.00000000
Pd      11.67120661       9.23591801       5.37701028  F       0.00000000       0.00000000       0.00000000
Pd       1.17515687       9.80710998       7.35240379  T       0.00000000       0.00000000       0.00000000
Pd       0.61517368      11.68830001       1.50000000  F       0.00000000       0.00000000       0.00000000
Pd       2.46069474       0.00000000       3.44535000  F       0.00000000       0.00000000       0.00000000
Pd       2.40693960      -0.00200869       7.40159677  T       0.00000000       0.00000000       0.00000000
Pd       9.22719689      10.44932842       5.41286416  F       0.00000000       0.00000000       0.00000000
Pd       3.67915024       8.62959595       7.49759710  T       0.00000000       0.00000000       0.00000000
Pd       4.30621579       0.61517368       1.50000000  F       0.00000000       0.00000000       0.00000000
Pd      11.07312632       4.92138948       3.44535000  F       0.00000000       0.00000000       0.00000000
Pd       4.30621579       6.76691053       1.50000000  F       0.00000000       0.00000000       0.00000000
Pd       3.65390982       2.48194542       7.52413689  T       0.00000000       0.00000000       0.00000000
Pd       2.40970219       6.15665214       7.37165059  T       0.00000000       0.00000000       0.00000000
Pd       0.60433818       5.55187436       5.37993065  F       0.00000000       0.00000000       0.00000000
Pd       2.46069474       6.15173685       3.44535000  F       0.00000000       0.00000000       0.00000000
Pd       0.61517368       5.53656316       1.50000000  F       0.00000000       0.00000000       0.00000000
Pd       1.20873690       3.65760594       7.41378464  T       0.00000000       0.00000000       0.00000000
Pd      11.67123156       3.08419612       5.37703229  F       0.00000000       0.00000000       0.00000000
Pd       6.92577805       6.68473286       9.90752313  T       0.00000000       0.00000000       0.00000000
Pd       1.23034737       3.69104211       3.44535000  F       0.00000000       0.00000000       0.00000000
Pd      12.26784946       1.31922725       7.37812355  T       0.00000000       0.00000000       0.00000000
Pd      10.43990395       0.63072067       5.40242717  F       0.00000000       0.00000000       0.00000000
Pd       0.00000000       1.23034737       3.44535000  F       0.00000000       0.00000000       0.00000000
Pd       1.84552105       1.84552105       1.50000000  F       0.00000000       0.00000000       0.00000000
Pd      10.45795264       0.61517368       1.50000000  F       0.00000000       0.00000000       0.00000000
Pd      11.07696487      11.11721364       7.39141280  T       0.00000000       0.00000000       0.00000000
Pd       3.07550809      10.44932540       5.41290581  F       0.00000000       0.00000000       0.00000000
Pd       3.69104211       2.46069474       3.44535000  F       0.00000000       0.00000000       0.00000000
Pd       1.85442396       1.83305046       5.40626716  F       0.00000000       0.00000000       0.00000000
Pd      11.68830001       3.07586842       1.50000000  F       0.00000000       0.00000000       0.00000000
Pd       0.76049199       0.51152414       9.89447901  T       0.00000000       0.00000000       0.00000000
Pd       2.33852593       3.50937118       9.90383328  T       0.00000000       0.00000000       0.00000000
Pd       3.86619478       6.73183420       9.88907707  T       0.00000000       0.00000000       0.00000000
Pd       6.15173685       1.23034737       3.44535000  F       0.00000000       0.00000000       0.00000000
Pd       4.28818081       0.63072761       5.40241929  F       0.00000000       0.00000000       0.00000000
Pd       6.10816918       1.31666015       7.39261397  T       0.00000000       0.00000000       0.00000000
Pd       5.53656316       3.07586842       1.50000000  F       0.00000000       0.00000000       0.00000000
Pd       1.85444455       7.98478761       5.40627529  F       0.00000000       0.00000000       0.00000000
Pd       5.43604560       3.38951127       9.65687344  T       0.00000000       0.00000000       0.00000000
Pd       3.07586842      10.45795264       1.50000000  F       0.00000000       0.00000000       0.00000000
Pd       3.07586842       4.30621579       1.50000000  F       0.00000000       0.00000000       0.00000000
Pd       3.07547731       4.29761827       5.41291946  F       0.00000000       0.00000000       0.00000000
Pd      11.09742993       4.96300570       7.39578698  T       0.00000000       0.00000000       0.00000000
Pd      11.07312632      11.07312632       3.44535000  F       0.00000000       0.00000000       0.00000000
Pd      10.00578459       0.57058296       9.91972857  T       0.00000000       0.00000000       0.00000000
Pd       6.92108197       0.53264487       9.91708213  T       0.00000000       0.00000000       0.00000000
Pd       8.49098949       9.65033264       9.76016490  T       0.00000000       0.00000000       0.00000000
Pd       0.76588705       6.69764879       9.90150252  T       0.00000000       0.00000000       0.00000000
Pd       5.41199583       9.56014757       9.67795626  T       0.00000000       0.00000000       0.00000000
Pd      11.53401958       3.40289093       9.67259171  T       0.00000000       0.00000000       0.00000000
Pd       8.48888998       3.49212576       9.76760264  T       0.00000000       0.00000000       0.00000000
Pd      10.01196683       6.72471549       9.91756482  T       0.00000000       0.00000000       0.00000000
Pd       3.86143686       0.54608336       9.91098871  T       0.00000000       0.00000000       0.00000000
Pd       2.34125413       9.63321021       9.75087748  T       0.00000000       0.00000000       0.00000000
Pd       4.93473430      11.12303546       7.39222437  T       0.00000000       0.00000000       0.00000000
Pd      11.54387636       9.56264520       9.67824463  T       0.00000000       0.00000000       0.00000000
C        2.62434308       4.05098810      11.69657005  T       0.00000000       0.00000000       0.00000000
O        2.84331763       4.41101636      12.77111898  T       0.00000000       0.00000000       0.00000000
