114
Lattice="12.303473692417112 0.0 0.0 0.0 12.303473692417114 0.0 0.0 0.0 29.165420746594243" Properties=species:S:1:pos:R:3:move_mask:L:1:momenta:R:3 adsorbate_info="_JSON {\"site\": {\"coordinates\": [3.1389699174889225, 4.982886264561116, 9.760702844289597], \"connectivity\": 2, \"topology\": [87, 88], \"n_vector\": [0.03920458858473401, -0.06895496119868018, 0.9968491428295407], \"h_vector\": [-0.4304112113018805, -0.9018594470695945, -0.037359428755979245], \"site_formula\": {\"Pd\": 2}}, \"smiles\": \"Cl[C]=O\", \"mdf\": 2.282169837571556, \"adsorbate_formula\": \"CO\"}" mace_E=-574.5535246654504 converged=T n_steps=48 d_min=3.1960273574290823 site_type=atop dE_rel_meV=0 original_idx=39 rank=162 E_MACE=-574.4538536898316 pbc="T T T"
O        8.45822478      11.60757359       9.35773148  T       0.00000000       0.00000000       0.00000000
O       11.47816310       5.41897454       9.37195886  T       0.00000000       0.00000000       0.00000000
O       11.53569702       1.66596663      10.55883713  T       0.00000000       0.00000000       0.00000000
O       11.48591219      11.56357261       9.37300628  T       0.00000000       0.00000000       0.00000000
O        8.41662066       7.84502957      10.54550004  T       0.00000000       0.00000000       0.00000000
O        5.33605517      11.55510200       9.37467879  T       0.00000000       0.00000000       0.00000000
O        5.38596949       7.82600956      10.60794407  T       0.00000000       0.00000000       0.00000000
O        8.44175896       5.46375629       9.35578977  T       0.00000000       0.00000000       0.00000000
O       11.51869545       7.81609773      10.57573780  T       0.00000000       0.00000000       0.00000000
O        2.29540294       5.46126432       9.36756537  T       0.00000000       0.00000000       0.00000000
O        2.27986441       1.69158445      10.52463990  T       0.00000000       0.00000000       0.00000000
O        2.30691875      11.60219574       9.35318813  T       0.00000000       0.00000000       0.00000000
O        5.32655381       5.40871562       9.38386514  T       0.00000000       0.00000000       0.00000000
O        5.38105446       1.65716890      10.56186292  T       0.00000000       0.00000000       0.00000000
O        2.24783100       7.85969466      10.56359201  T       0.00000000       0.00000000       0.00000000
O        8.42923205       1.69525459      10.52490412  T       0.00000000       0.00000000       0.00000000
Pd       5.53656316       9.22760527       1.50000000  F       0.00000000       0.00000000       0.00000000
Pd       6.11407724       7.46129045       7.39242372  T       0.00000000       0.00000000       0.00000000
Pd       4.28815433       6.78245218       5.40241719  F       0.00000000       0.00000000       0.00000000
Pd       6.15173685       7.38208422       3.44535000  F       0.00000000       0.00000000       0.00000000
Pd       7.31981399       3.65847215       7.35018910  T       0.00000000       0.00000000       0.00000000
Pd       5.51948843       3.08419342       5.37702261  F       0.00000000       0.00000000       0.00000000
Pd       6.76691053       5.53656316       1.50000000  F       0.00000000       0.00000000       0.00000000
Pd       7.38208422       9.84277895       3.44535000  F       0.00000000       0.00000000       0.00000000
Pd       7.99725790       7.99725790       1.50000000  F       0.00000000       0.00000000       0.00000000
Pd       5.51951598       9.23590192       5.37700272  F       0.00000000       0.00000000       0.00000000
Pd       8.00616182       7.98477587       5.40628129  F       0.00000000       0.00000000       0.00000000
Pd       6.76691053      11.68830001       1.50000000  F       0.00000000       0.00000000       0.00000000
Pd       8.61243158       0.00000000       3.44535000  F       0.00000000       0.00000000       0.00000000
Pd       6.75606179      11.70364973       5.37992114  F       0.00000000       0.00000000       0.00000000
Pd       8.55066146      -0.01097217       7.40613046  T       0.00000000       0.00000000       0.00000000
Pd       9.84277895       8.61243158       3.44535000  F       0.00000000       0.00000000       0.00000000
Pd       7.38208422       3.69104211       3.44535000  F       0.00000000       0.00000000       0.00000000
Pd       3.69104211       8.61243158       3.44535000  F       0.00000000       0.00000000       0.00000000
Pd       9.81972135       8.62192615       7.50205562  T       0.00000000       0.00000000       0.00000000
Pd       9.22760527      10.45795264       1.50000000  F       0.00000000       0.00000000       0.00000000
Pd       7.33013670       9.80628862       7.35031179  T       0.00000000       0.00000000       0.00000000
Pd       1.84552105       7.99725790       1.50000000  F       0.00000000       0.00000000       0.00000000
Pd      11.68830001       9.22760527       1.50000000  F       0.00000000       0.00000000       0.00000000
Pd       0.60431863      11.70356305       5.37989931  F       0.00000000       0.00000000       0.00000000
Pd       8.61243158       6.15173685       3.44535000  F       0.00000000       0.00000000       0.00000000
Pd       6.75605293       5.55187564       5.37990856  F       0.00000000       0.00000000       0.00000000
Pd       8.55004057       6.14350542       7.40438134  T       0.00000000       0.00000000       0.00000000
Pd       7.99725790       1.84552105       1.50000000  F       0.00000000       0.00000000       0.00000000
Pd       9.84277895       2.46069474       3.44535000  F       0.00000000       0.00000000       0.00000000
Pd       8.00617313       1.83308050       5.40627808  F       0.00000000       0.00000000       0.00000000
Pd       9.81532350       2.47234740       7.49891813  T       0.00000000       0.00000000       0.00000000
Pd       9.22760527       4.30621579       1.50000000  F       0.00000000       0.00000000       0.00000000
Pd       4.92138948       4.92138948       3.44535000  F       0.00000000       0.00000000       0.00000000
Pd       9.22722207       4.29761474       5.41287912  F       0.00000000       0.00000000       0.00000000
Pd       4.92529792       4.97775497       7.40578142  T       0.00000000       0.00000000       0.00000000
Pd      10.45795264       6.76691053       1.50000000  F       0.00000000       0.00000000       0.00000000
Pd       0.00000000       7.38208422       3.44535000  F       0.00000000       0.00000000       0.00000000
Pd      10.43991375       6.78245558       5.40242713  F       0.00000000       0.00000000       0.00000000
Pd      12.26523590       7.45994019       7.38552032  T       0.00000000       0.00000000       0.00000000
Pd       4.92138948      11.07312632       3.44535000  F       0.00000000       0.00000000       0.00000000
Pd       1.23034737       9.84277895       3.44535000  F       0.00000000       0.00000000       0.00000000
Pd      11.67120661       9.23591801       5.37701028  F       0.00000000       0.00000000       0.00000000
Pd       1.17758342       9.80622003       7.35351709  T       0.00000000       0.00000000       0.00000000
Pd       0.61517368      11.68830001       1.50000000  F       0.00000000       0.00000000       0.00000000
Pd       2.46069474       0.00000000       3.44535000  F       0.00000000       0.00000000       0.00000000
Pd       2.40454496      -0.00614821       7.40151801  T       0.00000000       0.00000000       0.00000000
Pd       9.22719689      10.44932842       5.41286416  F       0.00000000       0.00000000       0.00000000
Pd       3.66437596       8.61401295       7.51162344  T       0.00000000       0.00000000       0.00000000
Pd       4.30621579       0.61517368       1.50000000  F       0.00000000       0.00000000       0.00000000
Pd      11.07312632       4.92138948       3.44535000  F       0.00000000       0.00000000       0.00000000
Pd       4.30621579       6.76691053       1.50000000  F       0.00000000       0.00000000       0.00000000
Pd       3.66659162       2.47655740       7.50391244  T       0.00000000       0.00000000       0.00000000
Pd       2.40144081       6.14038934       7.41461106  T       0.00000000       0.00000000       0.00000000
Pd       0.60433818       5.55187436       5.37993065  F       0.00000000       0.00000000       0.00000000
Pd       2.46069474       6.15173685       3.44535000  F       0.00000000       0.00000000       0.00000000
Pd       0.61517368       5.53656316       1.50000000  F       0.00000000       0.00000000       0.00000000
Pd       1.17552534       3.65926050       7.35193646  T       0.00000000       0.00000000       0.00000000
Pd      11.67123156       3.08419612       5.37703229  F       0.00000000       0.00000000       0.00000000
Pd       6.88334251       6.67023705       9.93027993  T       0.00000000       0.00000000       0.00000000
Pd       1.23034737       3.69104211       3.44535000  F       0.00000000       0.00000000       0.00000000
Pd      12.26366319       1.30963826       7.38408543  T       0.00000000       0.00000000       0.00000000
Pd      10.43990395       0.63072067       5.40242717  F       0.00000000       0.00000000       0.00000000
Pd       0.00000000       1.23034737       3.44535000  F       0.00000000       0.00000000       0.00000000
Pd       1.84552105       1.84552105       1.50000000  F       0.00000000       0.00000000       0.00000000
Pd      10.45795264       0.61517368       1.50000000  F       0.00000000       0.00000000       0.00000000
Pd      11.07999674      11.12021939       7.39430637  T       0.00000000       0.00000000       0.00000000
Pd       3.07550809      10.44932540       5.41290581  F       0.00000000       0.00000000       0.00000000
Pd       3.69104211       2.46069474       3.44535000  F       0.00000000       0.00000000       0.00000000
Pd       1.85442396       1.83305046       5.40626716  F       0.00000000       0.00000000       0.00000000
Pd      11.68830001       3.07586842       1.50000000  F       0.00000000       0.00000000       0.00000000
Pd       0.74756488       0.51906159       9.90429098  T       0.00000000       0.00000000       0.00000000
Pd       2.31479296       3.48365585       9.76060641  T       0.00000000       0.00000000       0.00000000
Pd       3.82468906       6.70143536       9.98244306  T       0.00000000       0.00000000       0.00000000
Pd       6.15173685       1.23034737       3.44535000  F       0.00000000       0.00000000       0.00000000
Pd       4.28818081       0.63072761       5.40241929  F       0.00000000       0.00000000       0.00000000
Pd       6.10855767       1.30689765       7.38514436  T       0.00000000       0.00000000       0.00000000
Pd       5.53656316       3.07586842       1.50000000  F       0.00000000       0.00000000       0.00000000
Pd       1.85444455       7.98478761       5.40627529  F       0.00000000       0.00000000       0.00000000
Pd       5.37138362       3.39936016       9.68647167  T       0.00000000       0.00000000       0.00000000
Pd       3.07586842      10.45795264       1.50000000  F       0.00000000       0.00000000       0.00000000
Pd       3.07586842       4.30621579       1.50000000  F       0.00000000       0.00000000       0.00000000
Pd       3.07547731       4.29761827       5.41291946  F       0.00000000       0.00000000       0.00000000
Pd      11.07662626       4.97208083       7.39435610  T       0.00000000       0.00000000       0.00000000
Pd      11.07312632      11.07312632       3.44535000  F       0.00000000       0.00000000       0.00000000
Pd       9.98957431       0.55864950       9.90501166  T       0.00000000       0.00000000       0.00000000
Pd       6.89795570       0.51839874       9.90542042  T       0.00000000       0.00000000       0.00000000
Pd       8.46442979       9.62890586       9.75886387  T       0.00000000       0.00000000       0.00000000
Pd       0.73337424       6.67304875       9.92429965  T       0.00000000       0.00000000       0.00000000
Pd       5.37903445       9.54144016       9.68907462  T       0.00000000       0.00000000       0.00000000
Pd      11.52949493       3.40179547       9.66925900  T       0.00000000       0.00000000       0.00000000
Pd       8.45988139       3.48364404       9.75167229  T       0.00000000       0.00000000       0.00000000
Pd       9.97467939       6.71117707       9.91670885  T       0.00000000       0.00000000       0.00000000
Pd       3.83748735       0.54954453       9.90781206  T       0.00000000       0.00000000       0.00000000
Pd       2.30934688       9.62960380       9.76447785  T       0.00000000       0.00000000       0.00000000
Pd       4.92700431      11.11310487       7.39664077  T       0.00000000       0.00000000       0.00000000
Pd      11.51967147       9.55090583       9.68325563  T       0.00000000       0.00000000       0.00000000
C        3.71684963       5.95102232      12.41892634  T       0.00000000       0.00000000       0.00000000
O        3.45859574       6.61707324      13.32283333  T       0.00000000       0.00000000       0.00000000
