114
Lattice="12.303473692417112 0.0 0.0 0.0 12.303473692417114 0.0 0.0 0.0 29.165420746594243" Properties=species:S:1:pos:R:3:move_mask:L:1:momenta:R:3 adsorbate_info="_JSON {\"site\": {\"coordinates\": [11.071972191252627, 6.534583177693896, 9.84295425060858], \"connectivity\": 3, \"topology\": [1, 8, 107], \"n_vector\": [-0.03237121499584448, -0.3500735824110596, 0.9361626949080911], \"h_vector\": [-0.7722537521242822, -0.5674113032450326, -0.2857771076901397], \"site_formula\": {\"O\": 2, \"Pd\": 1}}, \"smiles\": \"Cl[C]=O\", \"mdf\": 2.2321095594818523, \"adsorbate_formula\": \"CO\"}" mace_E=-574.4881456991889 converged=T n_steps=42 d_min=3.1996108775446332 site_type=atop dE_rel_meV=0 original_idx=150 rank=164 E_MACE=-574.4522511551277 pbc="T T T"
O        8.46609113      11.59865446       9.35152260  T       0.00000000       0.00000000       0.00000000
O       11.49902150       5.39354928       9.37949332  T       0.00000000       0.00000000       0.00000000
O       11.54380235       1.64405988      10.57301012  T       0.00000000       0.00000000       0.00000000
O       11.49620879      11.54935174       9.37723561  T       0.00000000       0.00000000       0.00000000
O        8.44469741       7.83506324      10.53829825  T       0.00000000       0.00000000       0.00000000
O        5.34539767      11.55113440       9.37861661  T       0.00000000       0.00000000       0.00000000
O        5.39710828       7.80099979      10.56548949  T       0.00000000       0.00000000       0.00000000
O        8.47231735       5.44808114       9.35533350  T       0.00000000       0.00000000       0.00000000
O       11.55645108       7.80149983      10.55742636  T       0.00000000       0.00000000       0.00000000
O        2.32568166       5.43895583       9.34814491  T       0.00000000       0.00000000       0.00000000
O        2.28353118       1.67705807      10.53952301  T       0.00000000       0.00000000       0.00000000
O        2.31614021      11.59534200       9.35568471  T       0.00000000       0.00000000       0.00000000
O        5.35539208       5.39763937       9.37801682  T       0.00000000       0.00000000       0.00000000
O        5.39138128       1.64803277      10.57341691  T       0.00000000       0.00000000       0.00000000
O        2.29186017       7.82835549      10.53586268  T       0.00000000       0.00000000       0.00000000
O        8.43731031       1.68213325      10.53279826  T       0.00000000       0.00000000       0.00000000
Pd       5.53656316       9.22760527       1.50000000  F       0.00000000       0.00000000       0.00000000
Pd       6.11126859       7.45653033       7.39079794  T       0.00000000       0.00000000       0.00000000
Pd       4.28815433       6.78245218       5.40241719  F       0.00000000       0.00000000       0.00000000
Pd       6.15173685       7.38208422       3.44535000  F       0.00000000       0.00000000       0.00000000
Pd       7.33610928       3.65479938       7.35154202  T       0.00000000       0.00000000       0.00000000
Pd       5.51948843       3.08419342       5.37702261  F       0.00000000       0.00000000       0.00000000
Pd       6.76691053       5.53656316       1.50000000  F       0.00000000       0.00000000       0.00000000
Pd       7.38208422       9.84277895       3.44535000  F       0.00000000       0.00000000       0.00000000
Pd       7.99725790       7.99725790       1.50000000  F       0.00000000       0.00000000       0.00000000
Pd       5.51951598       9.23590192       5.37700272  F       0.00000000       0.00000000       0.00000000
Pd       8.00616182       7.98477587       5.40628129  F       0.00000000       0.00000000       0.00000000
Pd       6.76691053      11.68830001       1.50000000  F       0.00000000       0.00000000       0.00000000
Pd       8.61243158       0.00000000       3.44535000  F       0.00000000       0.00000000       0.00000000
Pd       6.75606179      11.70364973       5.37992114  F       0.00000000       0.00000000       0.00000000
Pd       8.56023099      -0.00930672       7.40286796  T       0.00000000       0.00000000       0.00000000
Pd       9.84277895       8.61243158       3.44535000  F       0.00000000       0.00000000       0.00000000
Pd       7.38208422       3.69104211       3.44535000  F       0.00000000       0.00000000       0.00000000
Pd       3.69104211       8.61243158       3.44535000  F       0.00000000       0.00000000       0.00000000
Pd       9.81864611       8.61903927       7.50304189  T       0.00000000       0.00000000       0.00000000
Pd       9.22760527      10.45795264       1.50000000  F       0.00000000       0.00000000       0.00000000
Pd       7.33334145       9.80639362       7.35195311  T       0.00000000       0.00000000       0.00000000
Pd       1.84552105       7.99725790       1.50000000  F       0.00000000       0.00000000       0.00000000
Pd      11.68830001       9.22760527       1.50000000  F       0.00000000       0.00000000       0.00000000
Pd       0.60431863      11.70356305       5.37989931  F       0.00000000       0.00000000       0.00000000
Pd       8.61243158       6.15173685       3.44535000  F       0.00000000       0.00000000       0.00000000
Pd       6.75605293       5.55187564       5.37990856  F       0.00000000       0.00000000       0.00000000
Pd       8.56005395       6.14180599       7.40432714  T       0.00000000       0.00000000       0.00000000
Pd       7.99725790       1.84552105       1.50000000  F       0.00000000       0.00000000       0.00000000
Pd       9.84277895       2.46069474       3.44535000  F       0.00000000       0.00000000       0.00000000
Pd       8.00617313       1.83308050       5.40627808  F       0.00000000       0.00000000       0.00000000
Pd       9.82118242       2.46949254       7.50112225  T       0.00000000       0.00000000       0.00000000
Pd       9.22760527       4.30621579       1.50000000  F       0.00000000       0.00000000       0.00000000
Pd       4.92138948       4.92138948       3.44535000  F       0.00000000       0.00000000       0.00000000
Pd       9.22722207       4.29761474       5.41287912  F       0.00000000       0.00000000       0.00000000
Pd       4.93184171       4.95998109       7.39945926  T       0.00000000       0.00000000       0.00000000
Pd      10.45795264       6.76691053       1.50000000  F       0.00000000       0.00000000       0.00000000
Pd       0.00000000       7.38208422       3.44535000  F       0.00000000       0.00000000       0.00000000
Pd      10.43991375       6.78245558       5.40242713  F       0.00000000       0.00000000       0.00000000
Pd      12.26391032       7.45607012       7.38764572  T       0.00000000       0.00000000       0.00000000
Pd       4.92138948      11.07312632       3.44535000  F       0.00000000       0.00000000       0.00000000
Pd       1.23034737       9.84277895       3.44535000  F       0.00000000       0.00000000       0.00000000
Pd      11.67120661       9.23591801       5.37701028  F       0.00000000       0.00000000       0.00000000
Pd       1.18418237       9.80623125       7.35159703  T       0.00000000       0.00000000       0.00000000
Pd       0.61517368      11.68830001       1.50000000  F       0.00000000       0.00000000       0.00000000
Pd       2.46069474       0.00000000       3.44535000  F       0.00000000       0.00000000       0.00000000
Pd       2.40783244      -0.00973284       7.40712065  T       0.00000000       0.00000000       0.00000000
Pd       9.22719689      10.44932842       5.41286416  F       0.00000000       0.00000000       0.00000000
Pd       3.66952041       8.62005873       7.49992592  T       0.00000000       0.00000000       0.00000000
Pd       4.30621579       0.61517368       1.50000000  F       0.00000000       0.00000000       0.00000000
Pd      11.07312632       4.92138948       3.44535000  F       0.00000000       0.00000000       0.00000000
Pd       4.30621579       6.76691053       1.50000000  F       0.00000000       0.00000000       0.00000000
Pd       3.67098291       2.46578773       7.50252815  T       0.00000000       0.00000000       0.00000000
Pd       2.41066227       6.14019081       7.40314402  T       0.00000000       0.00000000       0.00000000
Pd       0.60433818       5.55187436       5.37993065  F       0.00000000       0.00000000       0.00000000
Pd       2.46069474       6.15173685       3.44535000  F       0.00000000       0.00000000       0.00000000
Pd       0.61517368       5.53656316       1.50000000  F       0.00000000       0.00000000       0.00000000
Pd       1.18172479       3.65157260       7.35331014  T       0.00000000       0.00000000       0.00000000
Pd      11.67123156       3.08419612       5.37703229  F       0.00000000       0.00000000       0.00000000
Pd       6.91461422       6.66041604       9.91310864  T       0.00000000       0.00000000       0.00000000
Pd       1.23034737       3.69104211       3.44535000  F       0.00000000       0.00000000       0.00000000
Pd      12.26292173       1.30329676       7.39138573  T       0.00000000       0.00000000       0.00000000
Pd      10.43990395       0.63072067       5.40242717  F       0.00000000       0.00000000       0.00000000
Pd       0.00000000       1.23034737       3.44535000  F       0.00000000       0.00000000       0.00000000
Pd       1.84552105       1.84552105       1.50000000  F       0.00000000       0.00000000       0.00000000
Pd      10.45795264       0.61517368       1.50000000  F       0.00000000       0.00000000       0.00000000
Pd      11.08022228      11.11209666       7.39669924  T       0.00000000       0.00000000       0.00000000
Pd       3.07550809      10.44932540       5.41290581  F       0.00000000       0.00000000       0.00000000
Pd       3.69104211       2.46069474       3.44535000  F       0.00000000       0.00000000       0.00000000
Pd       1.85442396       1.83305046       5.40626716  F       0.00000000       0.00000000       0.00000000
Pd      11.68830001       3.07586842       1.50000000  F       0.00000000       0.00000000       0.00000000
Pd       0.75393530       0.50260505       9.91467347  T       0.00000000       0.00000000       0.00000000
Pd       2.33027950       3.46228951       9.75834886  T       0.00000000       0.00000000       0.00000000
Pd       3.85233890       6.69277884       9.90997608  T       0.00000000       0.00000000       0.00000000
Pd       6.15173685       1.23034737       3.44535000  F       0.00000000       0.00000000       0.00000000
Pd       4.28818081       0.63072761       5.40241929  F       0.00000000       0.00000000       0.00000000
Pd       6.11432851       1.30674785       7.39154607  T       0.00000000       0.00000000       0.00000000
Pd       5.53656316       3.07586842       1.50000000  F       0.00000000       0.00000000       0.00000000
Pd       1.85444455       7.98478761       5.40627529  F       0.00000000       0.00000000       0.00000000
Pd       5.39449662       3.38247486       9.68092674  T       0.00000000       0.00000000       0.00000000
Pd       3.07586842      10.45795264       1.50000000  F       0.00000000       0.00000000       0.00000000
Pd       3.07586842       4.30621579       1.50000000  F       0.00000000       0.00000000       0.00000000
Pd       3.07547731       4.29761827       5.41291946  F       0.00000000       0.00000000       0.00000000
Pd      11.08223203       4.96338977       7.39996562  T       0.00000000       0.00000000       0.00000000
Pd      11.07312632      11.07312632       3.44535000  F       0.00000000       0.00000000       0.00000000
Pd       9.99584249       0.54285644       9.91195875  T       0.00000000       0.00000000       0.00000000
Pd       6.90563002       0.50780267       9.91222120  T       0.00000000       0.00000000       0.00000000
Pd       8.48083143       9.62061142       9.75954972  T       0.00000000       0.00000000       0.00000000
Pd       0.76078323       6.65047268       9.91147311  T       0.00000000       0.00000000       0.00000000
Pd       5.39146735       9.53418299       9.67215374  T       0.00000000       0.00000000       0.00000000
Pd      11.54257629       3.37898478       9.68004302  T       0.00000000       0.00000000       0.00000000
Pd       8.47961794       3.46918270       9.75778746  T       0.00000000       0.00000000       0.00000000
Pd      10.00319095       6.69282041       9.91880174  T       0.00000000       0.00000000       0.00000000
Pd       3.84450315       0.54219952       9.91671789  T       0.00000000       0.00000000       0.00000000
Pd       2.32822902       9.61554291       9.75952352  T       0.00000000       0.00000000       0.00000000
Pd       4.92919834      11.11599862       7.39845690  T       0.00000000       0.00000000       0.00000000
Pd      11.54974005       9.53528244       9.67125488  T       0.00000000       0.00000000       0.00000000
C       12.65267192       6.52644359      13.33658838  T       0.00000000       0.00000000       0.00000000
O       11.75175717       7.13339942      13.70723723  T       0.00000000       0.00000000       0.00000000
