114
Lattice="12.303473692417112 0.0 0.0 0.0 12.303473692417114 0.0 0.0 0.0 29.165420746594243" Properties=species:S:1:pos:R:3:move_mask:L:1:momenta:R:3 adsorbate_info="_JSON {\"site\": {\"coordinates\": [5.437444740810636, 3.3360035062308384, 9.610755191475127], \"connectivity\": 1, \"topology\": [94], \"n_vector\": [-0.018670649103709722, 0.2503901888336456, 0.9679649581456435], \"h_vector\": [1.0, 0.0, 0.0], \"site_formula\": {\"Pd\": 1}}, \"smiles\": \"Cl[C]=O\", \"mdf\": 2.325994942075155, \"adsorbate_formula\": \"CO\"}" mace_E=-575.0358420114721 converged=T n_steps=53 d_min=2.0317409298492715 site_type=unknown dE_rel_meV=0 original_idx=68 rank=5 E_MACE=-575.2695867320857 pbc="T T T"
O        8.46098019      11.55940981       9.35235286  T       0.00000000       0.00000000       0.00000000
O       11.50148663       5.37506048       9.37521425  T       0.00000000       0.00000000       0.00000000
O       11.54211482       1.61038548      10.55538824  T       0.00000000       0.00000000       0.00000000
O       11.48445551      11.51515336       9.36125663  T       0.00000000       0.00000000       0.00000000
O        8.43628626       7.79709357      10.54795151  T       0.00000000       0.00000000       0.00000000
O        5.34841955      11.51009197       9.36637964  T       0.00000000       0.00000000       0.00000000
O        5.40541860       7.76832102      10.57790970  T       0.00000000       0.00000000       0.00000000
O        8.47113047       5.40946847       9.35203914  T       0.00000000       0.00000000       0.00000000
O       11.53573867       7.77333407      10.58698931  T       0.00000000       0.00000000       0.00000000
O        2.30922110       5.46002095       9.31836511  T       0.00000000       0.00000000       0.00000000
O        2.27091723       1.56725260      10.58899446  T       0.00000000       0.00000000       0.00000000
O        2.31106604      11.54550567       9.33776130  T       0.00000000       0.00000000       0.00000000
O        5.35477704       5.36873912       9.36558759  T       0.00000000       0.00000000       0.00000000
O        5.38878332       1.60557979      10.56660842  T       0.00000000       0.00000000       0.00000000
O        2.29202996       7.80648632      10.54714721  T       0.00000000       0.00000000       0.00000000
O        8.42680077       1.64080879      10.54036758  T       0.00000000       0.00000000       0.00000000
Pd       5.53656316       9.22760527       1.50000000  F       0.00000000       0.00000000       0.00000000
Pd       6.11477629       7.45399118       7.39696669  T       0.00000000       0.00000000       0.00000000
Pd       4.28815433       6.78245218       5.40241719  F       0.00000000       0.00000000       0.00000000
Pd       6.15173685       7.38208422       3.44535000  F       0.00000000       0.00000000       0.00000000
Pd       7.33606006       3.65230960       7.34316984  T       0.00000000       0.00000000       0.00000000
Pd       5.51948843       3.08419342       5.37702261  F       0.00000000       0.00000000       0.00000000
Pd       6.76691053       5.53656316       1.50000000  F       0.00000000       0.00000000       0.00000000
Pd       7.38208422       9.84277895       3.44535000  F       0.00000000       0.00000000       0.00000000
Pd       7.99725790       7.99725790       1.50000000  F       0.00000000       0.00000000       0.00000000
Pd       5.51951598       9.23590192       5.37700272  F       0.00000000       0.00000000       0.00000000
Pd       8.00616182       7.98477587       5.40628129  F       0.00000000       0.00000000       0.00000000
Pd       6.76691053      11.68830001       1.50000000  F       0.00000000       0.00000000       0.00000000
Pd       8.61243158       0.00000000       3.44535000  F       0.00000000       0.00000000       0.00000000
Pd       6.75606179      11.70364973       5.37992114  F       0.00000000       0.00000000       0.00000000
Pd       8.55265299      -0.01588433       7.40740386  T       0.00000000       0.00000000       0.00000000
Pd       9.84277895       8.61243158       3.44535000  F       0.00000000       0.00000000       0.00000000
Pd       7.38208422       3.69104211       3.44535000  F       0.00000000       0.00000000       0.00000000
Pd       3.69104211       8.61243158       3.44535000  F       0.00000000       0.00000000       0.00000000
Pd       9.81621642       8.60942417       7.49948877  T       0.00000000       0.00000000       0.00000000
Pd       9.22760527      10.45795264       1.50000000  F       0.00000000       0.00000000       0.00000000
Pd       7.33266516       9.80114249       7.34939688  T       0.00000000       0.00000000       0.00000000
Pd       1.84552105       7.99725790       1.50000000  F       0.00000000       0.00000000       0.00000000
Pd      11.68830001       9.22760527       1.50000000  F       0.00000000       0.00000000       0.00000000
Pd       0.60431863      11.70356305       5.37989931  F       0.00000000       0.00000000       0.00000000
Pd       8.61243158       6.15173685       3.44535000  F       0.00000000       0.00000000       0.00000000
Pd       6.75605293       5.55187564       5.37990856  F       0.00000000       0.00000000       0.00000000
Pd       8.56398360       6.13317098       7.40898282  T       0.00000000       0.00000000       0.00000000
Pd       7.99725790       1.84552105       1.50000000  F       0.00000000       0.00000000       0.00000000
Pd       9.84277895       2.46069474       3.44535000  F       0.00000000       0.00000000       0.00000000
Pd       8.00617313       1.83308050       5.40627808  F       0.00000000       0.00000000       0.00000000
Pd       9.82011040       2.45868486       7.49563439  T       0.00000000       0.00000000       0.00000000
Pd       9.22760527       4.30621579       1.50000000  F       0.00000000       0.00000000       0.00000000
Pd       4.92138948       4.92138948       3.44535000  F       0.00000000       0.00000000       0.00000000
Pd       9.22722207       4.29761474       5.41287912  F       0.00000000       0.00000000       0.00000000
Pd       4.92409523       4.96212321       7.39156162  T       0.00000000       0.00000000       0.00000000
Pd      10.45795264       6.76691053       1.50000000  F       0.00000000       0.00000000       0.00000000
Pd       0.00000000       7.38208422       3.44535000  F       0.00000000       0.00000000       0.00000000
Pd      10.43991375       6.78245558       5.40242713  F       0.00000000       0.00000000       0.00000000
Pd      12.25794044       7.45389708       7.39378226  T       0.00000000       0.00000000       0.00000000
Pd       4.92138948      11.07312632       3.44535000  F       0.00000000       0.00000000       0.00000000
Pd       1.23034737       9.84277895       3.44535000  F       0.00000000       0.00000000       0.00000000
Pd      11.67120661       9.23591801       5.37701028  F       0.00000000       0.00000000       0.00000000
Pd       1.17453794       9.79989941       7.34657693  T       0.00000000       0.00000000       0.00000000
Pd       0.61517368      11.68830001       1.50000000  F       0.00000000       0.00000000       0.00000000
Pd       2.46069474       0.00000000       3.44535000  F       0.00000000       0.00000000       0.00000000
Pd       2.40608718      -0.01153906       7.40295742  T       0.00000000       0.00000000       0.00000000
Pd       9.22719689      10.44932842       5.41286416  F       0.00000000       0.00000000       0.00000000
Pd       3.67158713       8.61887341       7.49217127  T       0.00000000       0.00000000       0.00000000
Pd       4.30621579       0.61517368       1.50000000  F       0.00000000       0.00000000       0.00000000
Pd      11.07312632       4.92138948       3.44535000  F       0.00000000       0.00000000       0.00000000
Pd       4.30621579       6.76691053       1.50000000  F       0.00000000       0.00000000       0.00000000
Pd       3.65660229       2.46525081       7.50751258  T       0.00000000       0.00000000       0.00000000
Pd       2.40295952       6.14521905       7.37775365  T       0.00000000       0.00000000       0.00000000
Pd       0.60433818       5.55187436       5.37993065  F       0.00000000       0.00000000       0.00000000
Pd       2.46069474       6.15173685       3.44535000  F       0.00000000       0.00000000       0.00000000
Pd       0.61517368       5.53656316       1.50000000  F       0.00000000       0.00000000       0.00000000
Pd       1.21371235       3.64059939       7.41190149  T       0.00000000       0.00000000       0.00000000
Pd      11.67123156       3.08419612       5.37703229  F       0.00000000       0.00000000       0.00000000
Pd       6.91190770       6.62408244       9.91329421  T       0.00000000       0.00000000       0.00000000
Pd       1.23034737       3.69104211       3.44535000  F       0.00000000       0.00000000       0.00000000
Pd      12.26188152       1.30527709       7.38285366  T       0.00000000       0.00000000       0.00000000
Pd      10.43990395       0.63072067       5.40242717  F       0.00000000       0.00000000       0.00000000
Pd       0.00000000       1.23034737       3.44535000  F       0.00000000       0.00000000       0.00000000
Pd       1.84552105       1.84552105       1.50000000  F       0.00000000       0.00000000       0.00000000
Pd      10.45795264       0.61517368       1.50000000  F       0.00000000       0.00000000       0.00000000
Pd      11.07258596      11.10738369       7.38813399  T       0.00000000       0.00000000       0.00000000
Pd       3.07550809      10.44932540       5.41290581  F       0.00000000       0.00000000       0.00000000
Pd       3.69104211       2.46069474       3.44535000  F       0.00000000       0.00000000       0.00000000
Pd       1.85442396       1.83305046       5.40626716  F       0.00000000       0.00000000       0.00000000
Pd      11.68830001       3.07586842       1.50000000  F       0.00000000       0.00000000       0.00000000
Pd       0.74303996       0.45839452       9.88875166  T       0.00000000       0.00000000       0.00000000
Pd       2.33841119       3.46754886       9.90045535  T       0.00000000       0.00000000       0.00000000
Pd       3.85472586       6.68708202       9.89482899  T       0.00000000       0.00000000       0.00000000
Pd       6.15173685       1.23034737       3.44535000  F       0.00000000       0.00000000       0.00000000
Pd       4.28818081       0.63072761       5.40241929  F       0.00000000       0.00000000       0.00000000
Pd       6.10754558       1.30581006       7.39638377  T       0.00000000       0.00000000       0.00000000
Pd       5.53656316       3.07586842       1.50000000  F       0.00000000       0.00000000       0.00000000
Pd       1.85444455       7.98478761       5.40627529  F       0.00000000       0.00000000       0.00000000
Pd       5.42825114       3.33412330       9.64185282  T       0.00000000       0.00000000       0.00000000
Pd       3.07586842      10.45795264       1.50000000  F       0.00000000       0.00000000       0.00000000
Pd       3.07586842       4.30621579       1.50000000  F       0.00000000       0.00000000       0.00000000
Pd       3.07547731       4.29761827       5.41291946  F       0.00000000       0.00000000       0.00000000
Pd      11.09753228       4.95074734       7.39463526  T       0.00000000       0.00000000       0.00000000
Pd      11.07312632      11.07312632       3.44535000  F       0.00000000       0.00000000       0.00000000
Pd       9.98763772       0.50546544       9.91360430  T       0.00000000       0.00000000       0.00000000
Pd       6.90158880       0.46617818       9.91413147  T       0.00000000       0.00000000       0.00000000
Pd       8.47101521       9.58103961       9.76202960  T       0.00000000       0.00000000       0.00000000
Pd       0.75231489       6.64880535       9.91507223  T       0.00000000       0.00000000       0.00000000
Pd       5.40491472       9.50001075       9.67701101  T       0.00000000       0.00000000       0.00000000
Pd      11.53060973       3.35271864       9.66708485  T       0.00000000       0.00000000       0.00000000
Pd       8.46537884       3.42731771       9.75733413  T       0.00000000       0.00000000       0.00000000
Pd       9.99742114       6.66138831       9.92471586  T       0.00000000       0.00000000       0.00000000
Pd       3.84169062       0.48677804       9.91294551  T       0.00000000       0.00000000       0.00000000
Pd       2.32214962       9.57916486       9.74993014  T       0.00000000       0.00000000       0.00000000
Pd       4.93049672      11.11130053       7.38888697  T       0.00000000       0.00000000       0.00000000
Pd      11.52991522       9.50135331       9.67629921  T       0.00000000       0.00000000       0.00000000
C        2.94350070       3.93389832      11.63850470  T       0.00000000       0.00000000       0.00000000
O        3.37360662       4.18055012      12.68175088  T       0.00000000       0.00000000       0.00000000
