114
Lattice="12.303473692417112 0.0 0.0 0.0 12.303473692417114 0.0 0.0 0.0 29.165420746594243" Properties=species:S:1:pos:R:3:move_mask:L:1:momenta:R:3 adsorbate_info="_JSON {\"site\": {\"coordinates\": [0.8238631988214795, 1.5729981503714119, 10.408198545018681], \"connectivity\": 2, \"topology\": [2, 10], \"n_vector\": [-0.04252067467891278, 0.04370177282136435, 0.9981393426156089], \"h_vector\": [-0.9999539087250394, -0.007631509834012579, -0.005825846133297545], \"site_formula\": {\"O\": 2}}, \"smiles\": \"Cl[C]=O\", \"mdf\": 2.2482969440799505, \"adsorbate_formula\": \"CO\"}" mace_E=-574.4747244912664 converged=T n_steps=28 d_min=2.5272677815514517 site_type=atop dE_rel_meV=0 original_idx=6 rank=83 E_MACE=-574.5545172134811 pbc="T T T"
O        8.49782244      11.54604969       9.36257075  T       0.00000000       0.00000000       0.00000000
O       11.53293724       5.35557777       9.38420372  T       0.00000000       0.00000000       0.00000000
O       11.57912918       1.60100012      10.57010959  T       0.00000000       0.00000000       0.00000000
O       11.52149681      11.49695633       9.38389802  T       0.00000000       0.00000000       0.00000000
O        8.47096249       7.77929518      10.55522481  T       0.00000000       0.00000000       0.00000000
O        5.38247156      11.49820399       9.38228935  T       0.00000000       0.00000000       0.00000000
O        5.43461460       7.75600676      10.59299903  T       0.00000000       0.00000000       0.00000000
O        8.50103647       5.39936231       9.35874573  T       0.00000000       0.00000000       0.00000000
O       11.57346609       7.75249484      10.59279170  T       0.00000000       0.00000000       0.00000000
O        2.35132042       5.41345826       9.36159988  T       0.00000000       0.00000000       0.00000000
O        2.31604729       1.63955892      10.49651985  T       0.00000000       0.00000000       0.00000000
O        2.34662703      11.54592482       9.34569626  T       0.00000000       0.00000000       0.00000000
O        5.37584764       5.35944736       9.38223667  T       0.00000000       0.00000000       0.00000000
O        5.42294703       1.60574003      10.56892198  T       0.00000000       0.00000000       0.00000000
O        2.31850761       7.79185798      10.55407632  T       0.00000000       0.00000000       0.00000000
O        8.46854310       1.63325167      10.53880751  T       0.00000000       0.00000000       0.00000000
Pd       5.53656316       9.22760527       1.50000000  F       0.00000000       0.00000000       0.00000000
Pd       6.12091612       7.45287960       7.39707115  T       0.00000000       0.00000000       0.00000000
Pd       4.28815433       6.78245218       5.40241719  F       0.00000000       0.00000000       0.00000000
Pd       6.15173685       7.38208422       3.44535000  F       0.00000000       0.00000000       0.00000000
Pd       7.33798092       3.65123287       7.35558637  T       0.00000000       0.00000000       0.00000000
Pd       5.51948843       3.08419342       5.37702261  F       0.00000000       0.00000000       0.00000000
Pd       6.76691053       5.53656316       1.50000000  F       0.00000000       0.00000000       0.00000000
Pd       7.38208422       9.84277895       3.44535000  F       0.00000000       0.00000000       0.00000000
Pd       7.99725790       7.99725790       1.50000000  F       0.00000000       0.00000000       0.00000000
Pd       5.51951598       9.23590192       5.37700272  F       0.00000000       0.00000000       0.00000000
Pd       8.00616182       7.98477587       5.40628129  F       0.00000000       0.00000000       0.00000000
Pd       6.76691053      11.68830001       1.50000000  F       0.00000000       0.00000000       0.00000000
Pd       8.61243158       0.00000000       3.44535000  F       0.00000000       0.00000000       0.00000000
Pd       6.75606179      11.70364973       5.37992114  F       0.00000000       0.00000000       0.00000000
Pd       8.56602950      -0.02238031       7.41605034  T       0.00000000       0.00000000       0.00000000
Pd       9.84277895       8.61243158       3.44535000  F       0.00000000       0.00000000       0.00000000
Pd       7.38208422       3.69104211       3.44535000  F       0.00000000       0.00000000       0.00000000
Pd       3.69104211       8.61243158       3.44535000  F       0.00000000       0.00000000       0.00000000
Pd       9.82916580       8.60995952       7.49992225  T       0.00000000       0.00000000       0.00000000
Pd       9.22760527      10.45795264       1.50000000  F       0.00000000       0.00000000       0.00000000
Pd       7.34283943       9.79983711       7.35742022  T       0.00000000       0.00000000       0.00000000
Pd       1.84552105       7.99725790       1.50000000  F       0.00000000       0.00000000       0.00000000
Pd      11.68830001       9.22760527       1.50000000  F       0.00000000       0.00000000       0.00000000
Pd       0.60431863      11.70356305       5.37989931  F       0.00000000       0.00000000       0.00000000
Pd       8.61243158       6.15173685       3.44535000  F       0.00000000       0.00000000       0.00000000
Pd       6.75605293       5.55187564       5.37990856  F       0.00000000       0.00000000       0.00000000
Pd       8.56515003       6.13405027       7.41522365  T       0.00000000       0.00000000       0.00000000
Pd       7.99725790       1.84552105       1.50000000  F       0.00000000       0.00000000       0.00000000
Pd       9.84277895       2.46069474       3.44535000  F       0.00000000       0.00000000       0.00000000
Pd       8.00617313       1.83308050       5.40627808  F       0.00000000       0.00000000       0.00000000
Pd       9.82628041       2.45951500       7.49642434  T       0.00000000       0.00000000       0.00000000
Pd       9.22760527       4.30621579       1.50000000  F       0.00000000       0.00000000       0.00000000
Pd       4.92138948       4.92138948       3.44535000  F       0.00000000       0.00000000       0.00000000
Pd       9.22722207       4.29761474       5.41287912  F       0.00000000       0.00000000       0.00000000
Pd       4.93703812       4.96278331       7.40192089  T       0.00000000       0.00000000       0.00000000
Pd      10.45795264       6.76691053       1.50000000  F       0.00000000       0.00000000       0.00000000
Pd       0.00000000       7.38208422       3.44535000  F       0.00000000       0.00000000       0.00000000
Pd      10.43991375       6.78245558       5.40242713  F       0.00000000       0.00000000       0.00000000
Pd      12.26969223       7.44839879       7.39685362  T       0.00000000       0.00000000       0.00000000
Pd       4.92138948      11.07312632       3.44535000  F       0.00000000       0.00000000       0.00000000
Pd       1.23034737       9.84277895       3.44535000  F       0.00000000       0.00000000       0.00000000
Pd      11.67120661       9.23591801       5.37701028  F       0.00000000       0.00000000       0.00000000
Pd       1.18619650       9.79685440       7.35558604  T       0.00000000       0.00000000       0.00000000
Pd       0.61517368      11.68830001       1.50000000  F       0.00000000       0.00000000       0.00000000
Pd       2.46069474       0.00000000       3.44535000  F       0.00000000       0.00000000       0.00000000
Pd       2.41428800      -0.02010549       7.40806529  T       0.00000000       0.00000000       0.00000000
Pd       9.22719689      10.44932842       5.41286416  F       0.00000000       0.00000000       0.00000000
Pd       3.68043153       8.61402834       7.49840375  T       0.00000000       0.00000000       0.00000000
Pd       4.30621579       0.61517368       1.50000000  F       0.00000000       0.00000000       0.00000000
Pd      11.07312632       4.92138948       3.44535000  F       0.00000000       0.00000000       0.00000000
Pd       4.30621579       6.76691053       1.50000000  F       0.00000000       0.00000000       0.00000000
Pd       3.67942618       2.46413779       7.49469615  T       0.00000000       0.00000000       0.00000000
Pd       2.41390108       6.13759543       7.41492278  T       0.00000000       0.00000000       0.00000000
Pd       0.60433818       5.55187436       5.37993065  F       0.00000000       0.00000000       0.00000000
Pd       2.46069474       6.15173685       3.44535000  F       0.00000000       0.00000000       0.00000000
Pd       0.61517368       5.53656316       1.50000000  F       0.00000000       0.00000000       0.00000000
Pd       1.18645404       3.65330044       7.35168486  T       0.00000000       0.00000000       0.00000000
Pd      11.67123156       3.08419612       5.37703229  F       0.00000000       0.00000000       0.00000000
Pd       6.94026891       6.60984255       9.92605542  T       0.00000000       0.00000000       0.00000000
Pd       1.23034737       3.69104211       3.44535000  F       0.00000000       0.00000000       0.00000000
Pd      12.26803858       1.30005803       7.39038741  T       0.00000000       0.00000000       0.00000000
Pd      10.43990395       0.63072067       5.40242717  F       0.00000000       0.00000000       0.00000000
Pd       0.00000000       1.23034737       3.44535000  F       0.00000000       0.00000000       0.00000000
Pd       1.84552105       1.84552105       1.50000000  F       0.00000000       0.00000000       0.00000000
Pd      10.45795264       0.61517368       1.50000000  F       0.00000000       0.00000000       0.00000000
Pd      11.09057113      11.10627162       7.40210553  T       0.00000000       0.00000000       0.00000000
Pd       3.07550809      10.44932540       5.41290581  F       0.00000000       0.00000000       0.00000000
Pd       3.69104211       2.46069474       3.44535000  F       0.00000000       0.00000000       0.00000000
Pd       1.85442396       1.83305046       5.40626716  F       0.00000000       0.00000000       0.00000000
Pd      11.68830001       3.07586842       1.50000000  F       0.00000000       0.00000000       0.00000000
Pd       0.78195934       0.45227010       9.90459573  T       0.00000000       0.00000000       0.00000000
Pd       2.35756703       3.43397872       9.75118591  T       0.00000000       0.00000000       0.00000000
Pd       3.88250949       6.65588238       9.93255462  T       0.00000000       0.00000000       0.00000000
Pd       6.15173685       1.23034737       3.44535000  F       0.00000000       0.00000000       0.00000000
Pd       4.28818081       0.63072761       5.40241929  F       0.00000000       0.00000000       0.00000000
Pd       6.12016071       1.29859452       7.39235131  T       0.00000000       0.00000000       0.00000000
Pd       5.53656316       3.07586842       1.50000000  F       0.00000000       0.00000000       0.00000000
Pd       1.85444455       7.98478761       5.40627529  F       0.00000000       0.00000000       0.00000000
Pd       5.41626664       3.34422148       9.67949366  T       0.00000000       0.00000000       0.00000000
Pd       3.07586842      10.45795264       1.50000000  F       0.00000000       0.00000000       0.00000000
Pd       3.07586842       4.30621579       1.50000000  F       0.00000000       0.00000000       0.00000000
Pd       3.07547731       4.29761827       5.41291946  F       0.00000000       0.00000000       0.00000000
Pd      11.08858562       4.95758323       7.40393145  T       0.00000000       0.00000000       0.00000000
Pd      11.07312632      11.07312632       3.44535000  F       0.00000000       0.00000000       0.00000000
Pd      10.02796078       0.49158679       9.92326090  T       0.00000000       0.00000000       0.00000000
Pd       6.93628058       0.45828639       9.91592237  T       0.00000000       0.00000000       0.00000000
Pd       8.50634472       9.56489704       9.76774288  T       0.00000000       0.00000000       0.00000000
Pd       0.78640573       6.61819299       9.92553152  T       0.00000000       0.00000000       0.00000000
Pd       5.42679693       9.48934159       9.69211592  T       0.00000000       0.00000000       0.00000000
Pd      11.57480509       3.34044331       9.68080335  T       0.00000000       0.00000000       0.00000000
Pd       8.50686811       3.42028128       9.75875824  T       0.00000000       0.00000000       0.00000000
Pd      10.03112731       6.64341413       9.93194270  T       0.00000000       0.00000000       0.00000000
Pd       3.88044552       0.49299672       9.90613845  T       0.00000000       0.00000000       0.00000000
Pd       2.35733679       9.57103932       9.75773103  T       0.00000000       0.00000000       0.00000000
Pd       4.94254103      11.10772779       7.40199990  T       0.00000000       0.00000000       0.00000000
Pd      11.56657088       9.48673955       9.69271671  T       0.00000000       0.00000000       0.00000000
C        2.96415549       0.92784453      13.27452987  T       0.00000000       0.00000000       0.00000000
O        2.72712343       1.99627217      13.62270087  T       0.00000000       0.00000000       0.00000000
