114
Lattice="12.303473692417112 0.0 0.0 0.0 12.303473692417114 0.0 0.0 0.0 29.165420746594243" Properties=species:S:1:pos:R:3:move_mask:L:1:momenta:R:3 adsorbate_info="_JSON {\"site\": {\"coordinates\": [11.566324075124669, 11.466317048958297, 9.302927531569768], \"connectivity\": 1, \"topology\": [3], \"n_vector\": [0.01770160729744641, -0.15367035995481293, 0.9879635993144916], \"h_vector\": [1.0, 0.0, 0.0], \"site_formula\": {\"O\": 1}}, \"smiles\": \"Cl[C]=O\", \"mdf\": 2.129086737671036, \"adsorbate_formula\": \"CO\"}" mace_E=-574.5542649521043 converged=T n_steps=45 d_min=3.1924261504636657 site_type=hollow dE_rel_meV=0 original_idx=161 rank=163 E_MACE=-574.4527945962491 pbc="T T T"
O        8.47480438      11.58388086       9.37754868  T       0.00000000       0.00000000       0.00000000
O       11.49337731       5.36859406       9.37672664  T       0.00000000       0.00000000       0.00000000
O       11.57936892       1.64686243      10.59639131  T       0.00000000       0.00000000       0.00000000
O       11.49734074      11.52866180       9.38977384  T       0.00000000       0.00000000       0.00000000
O        8.42731150       7.80042446      10.51470000  T       0.00000000       0.00000000       0.00000000
O        5.35288261      11.52755493       9.37916869  T       0.00000000       0.00000000       0.00000000
O        5.39258583       7.77446853      10.55903860  T       0.00000000       0.00000000       0.00000000
O        8.46145949       5.40618594       9.34566377  T       0.00000000       0.00000000       0.00000000
O       11.53536852       7.77186207      10.56121072  T       0.00000000       0.00000000       0.00000000
O        2.31048445       5.42096372       9.35132299  T       0.00000000       0.00000000       0.00000000
O        2.29344430       1.65587538      10.53196122  T       0.00000000       0.00000000       0.00000000
O        2.31190485      11.57406981       9.34923734  T       0.00000000       0.00000000       0.00000000
O        5.33628787       5.36882029       9.37818342  T       0.00000000       0.00000000       0.00000000
O        5.38758751       1.62333216      10.57381779  T       0.00000000       0.00000000       0.00000000
O        2.27655465       7.80968252      10.52751491  T       0.00000000       0.00000000       0.00000000
O        8.41366971       1.66511921      10.59459601  T       0.00000000       0.00000000       0.00000000
Pd       5.53656316       9.22760527       1.50000000  F       0.00000000       0.00000000       0.00000000
Pd       6.11256647       7.45844896       7.38876381  T       0.00000000       0.00000000       0.00000000
Pd       4.28815433       6.78245218       5.40241719  F       0.00000000       0.00000000       0.00000000
Pd       6.15173685       7.38208422       3.44535000  F       0.00000000       0.00000000       0.00000000
Pd       7.33473155       3.65038888       7.35197241  T       0.00000000       0.00000000       0.00000000
Pd       5.51948843       3.08419342       5.37702261  F       0.00000000       0.00000000       0.00000000
Pd       6.76691053       5.53656316       1.50000000  F       0.00000000       0.00000000       0.00000000
Pd       7.38208422       9.84277895       3.44535000  F       0.00000000       0.00000000       0.00000000
Pd       7.99725790       7.99725790       1.50000000  F       0.00000000       0.00000000       0.00000000
Pd       5.51951598       9.23590192       5.37700272  F       0.00000000       0.00000000       0.00000000
Pd       8.00616182       7.98477587       5.40628129  F       0.00000000       0.00000000       0.00000000
Pd       6.76691053      11.68830001       1.50000000  F       0.00000000       0.00000000       0.00000000
Pd       8.61243158       0.00000000       3.44535000  F       0.00000000       0.00000000       0.00000000
Pd       6.75606179      11.70364973       5.37992114  F       0.00000000       0.00000000       0.00000000
Pd       8.56259561      -0.01722358       7.42548324  T       0.00000000       0.00000000       0.00000000
Pd       9.84277895       8.61243158       3.44535000  F       0.00000000       0.00000000       0.00000000
Pd       7.38208422       3.69104211       3.44535000  F       0.00000000       0.00000000       0.00000000
Pd       3.69104211       8.61243158       3.44535000  F       0.00000000       0.00000000       0.00000000
Pd       9.81937562       8.62005039       7.50066402  T       0.00000000       0.00000000       0.00000000
Pd       9.22760527      10.45795264       1.50000000  F       0.00000000       0.00000000       0.00000000
Pd       7.33458164       9.81187443       7.34690804  T       0.00000000       0.00000000       0.00000000
Pd       1.84552105       7.99725790       1.50000000  F       0.00000000       0.00000000       0.00000000
Pd      11.68830001       9.22760527       1.50000000  F       0.00000000       0.00000000       0.00000000
Pd       0.60431863      11.70356305       5.37989931  F       0.00000000       0.00000000       0.00000000
Pd       8.61243158       6.15173685       3.44535000  F       0.00000000       0.00000000       0.00000000
Pd       6.75605293       5.55187564       5.37990856  F       0.00000000       0.00000000       0.00000000
Pd       8.55760047       6.13861337       7.40627053  T       0.00000000       0.00000000       0.00000000
Pd       7.99725790       1.84552105       1.50000000  F       0.00000000       0.00000000       0.00000000
Pd       9.84277895       2.46069474       3.44535000  F       0.00000000       0.00000000       0.00000000
Pd       8.00617313       1.83308050       5.40627808  F       0.00000000       0.00000000       0.00000000
Pd       9.81257946       2.45381851       7.50566167  T       0.00000000       0.00000000       0.00000000
Pd       9.22760527       4.30621579       1.50000000  F       0.00000000       0.00000000       0.00000000
Pd       4.92138948       4.92138948       3.44535000  F       0.00000000       0.00000000       0.00000000
Pd       9.22722207       4.29761474       5.41287912  F       0.00000000       0.00000000       0.00000000
Pd       4.93032407       4.95888834       7.39464537  T       0.00000000       0.00000000       0.00000000
Pd      10.45795264       6.76691053       1.50000000  F       0.00000000       0.00000000       0.00000000
Pd       0.00000000       7.38208422       3.44535000  F       0.00000000       0.00000000       0.00000000
Pd      10.43991375       6.78245558       5.40242713  F       0.00000000       0.00000000       0.00000000
Pd      12.26185755       7.44723588       7.38593011  T       0.00000000       0.00000000       0.00000000
Pd       4.92138948      11.07312632       3.44535000  F       0.00000000       0.00000000       0.00000000
Pd       1.23034737       9.84277895       3.44535000  F       0.00000000       0.00000000       0.00000000
Pd      11.67120661       9.23591801       5.37701028  F       0.00000000       0.00000000       0.00000000
Pd       1.17147203       9.80278317       7.34866695  T       0.00000000       0.00000000       0.00000000
Pd       0.61517368      11.68830001       1.50000000  F       0.00000000       0.00000000       0.00000000
Pd       2.46069474       0.00000000       3.44535000  F       0.00000000       0.00000000       0.00000000
Pd       2.40240563      -0.01794076       7.40479357  T       0.00000000       0.00000000       0.00000000
Pd       9.22719689      10.44932842       5.41286416  F       0.00000000       0.00000000       0.00000000
Pd       3.66385225       8.61794889       7.49803095  T       0.00000000       0.00000000       0.00000000
Pd       4.30621579       0.61517368       1.50000000  F       0.00000000       0.00000000       0.00000000
Pd      11.07312632       4.92138948       3.44535000  F       0.00000000       0.00000000       0.00000000
Pd       4.30621579       6.76691053       1.50000000  F       0.00000000       0.00000000       0.00000000
Pd       3.67070799       2.45739949       7.49784022  T       0.00000000       0.00000000       0.00000000
Pd       2.40540192       6.13796381       7.40580503  T       0.00000000       0.00000000       0.00000000
Pd       0.60433818       5.55187436       5.37993065  F       0.00000000       0.00000000       0.00000000
Pd       2.46069474       6.15173685       3.44535000  F       0.00000000       0.00000000       0.00000000
Pd       0.61517368       5.53656316       1.50000000  F       0.00000000       0.00000000       0.00000000
Pd       1.18455267       3.65135171       7.34652260  T       0.00000000       0.00000000       0.00000000
Pd      11.67123156       3.08419612       5.37703229  F       0.00000000       0.00000000       0.00000000
Pd       6.89884058       6.62240847       9.90318328  T       0.00000000       0.00000000       0.00000000
Pd       1.23034737       3.69104211       3.44535000  F       0.00000000       0.00000000       0.00000000
Pd      12.26615403       1.30202358       7.39435092  T       0.00000000       0.00000000       0.00000000
Pd      10.43990395       0.63072067       5.40242717  F       0.00000000       0.00000000       0.00000000
Pd       0.00000000       1.23034737       3.44535000  F       0.00000000       0.00000000       0.00000000
Pd       1.84552105       1.84552105       1.50000000  F       0.00000000       0.00000000       0.00000000
Pd      10.45795264       0.61517368       1.50000000  F       0.00000000       0.00000000       0.00000000
Pd      11.07905526      11.12108979       7.40775385  T       0.00000000       0.00000000       0.00000000
Pd       3.07550809      10.44932540       5.41290581  F       0.00000000       0.00000000       0.00000000
Pd       3.69104211       2.46069474       3.44535000  F       0.00000000       0.00000000       0.00000000
Pd       1.85442396       1.83305046       5.40626716  F       0.00000000       0.00000000       0.00000000
Pd      11.68830001       3.07586842       1.50000000  F       0.00000000       0.00000000       0.00000000
Pd       0.75826571       0.48290347       9.92299243  T       0.00000000       0.00000000       0.00000000
Pd       2.32778255       3.44180594       9.75146394  T       0.00000000       0.00000000       0.00000000
Pd       3.83987959       6.67214552       9.90911143  T       0.00000000       0.00000000       0.00000000
Pd       6.15173685       1.23034737       3.44535000  F       0.00000000       0.00000000       0.00000000
Pd       4.28818081       0.63072761       5.40241929  F       0.00000000       0.00000000       0.00000000
Pd       6.12106664       1.29946036       7.39469683  T       0.00000000       0.00000000       0.00000000
Pd       5.53656316       3.07586842       1.50000000  F       0.00000000       0.00000000       0.00000000
Pd       1.85444455       7.98478761       5.40627529  F       0.00000000       0.00000000       0.00000000
Pd       5.38417108       3.35365372       9.66935654  T       0.00000000       0.00000000       0.00000000
Pd       3.07586842      10.45795264       1.50000000  F       0.00000000       0.00000000       0.00000000
Pd       3.07586842       4.30621579       1.50000000  F       0.00000000       0.00000000       0.00000000
Pd       3.07547731       4.29761827       5.41291946  F       0.00000000       0.00000000       0.00000000
Pd      11.07846042       4.95069406       7.39449284  T       0.00000000       0.00000000       0.00000000
Pd      11.07312632      11.07312632       3.44535000  F       0.00000000       0.00000000       0.00000000
Pd      10.00223934       0.51384226      10.00862388  T       0.00000000       0.00000000       0.00000000
Pd       6.90591048       0.48160771       9.93526331  T       0.00000000       0.00000000       0.00000000
Pd       8.46851959       9.59503314       9.75187412  T       0.00000000       0.00000000       0.00000000
Pd       0.74713708       6.63190817       9.90697298  T       0.00000000       0.00000000       0.00000000
Pd       5.40022907       9.50955794       9.66303372  T       0.00000000       0.00000000       0.00000000
Pd      11.55071837       3.35159584       9.66573925  T       0.00000000       0.00000000       0.00000000
Pd       8.46715067       3.42643136       9.76634144  T       0.00000000       0.00000000       0.00000000
Pd       9.99068855       6.66073266       9.90704258  T       0.00000000       0.00000000       0.00000000
Pd       3.84804149       0.51426214       9.91241599  T       0.00000000       0.00000000       0.00000000
Pd       2.31501619       9.59569427       9.74896590  T       0.00000000       0.00000000       0.00000000
Pd       4.93027314      11.11487510       7.39803590  T       0.00000000       0.00000000       0.00000000
Pd      11.53911626       9.50970412       9.66983879  T       0.00000000       0.00000000       0.00000000
C       10.05644010      11.89211834      12.35562923  T       0.00000000       0.00000000       0.00000000
O        9.43340085      10.97704838      12.68014899  T       0.00000000       0.00000000       0.00000000
