114
Lattice="12.303473692417112 0.0 0.0 0.0 12.303473692417114 0.0 0.0 0.0 29.165420746594243" Properties=species:S:1:pos:R:3:move_mask:L:1:momenta:R:3 adsorbate_info="_JSON {\"site\": {\"coordinates\": [7.7506463285424605, 4.969540464737734, 9.764147765102226], \"connectivity\": 2, \"topology\": [74, 106], \"n_vector\": [-0.03866149496144416, -0.07341361196546485, 0.9965519205668766], \"h_vector\": [0.44226455931188086, -0.8960189904621407, -0.039395790484186316], \"site_formula\": {\"Pd\": 2}}, \"smiles\": \"Cl[C]=O\", \"mdf\": 2.211282732320654, \"adsorbate_formula\": \"CO\"}" mace_E=-574.592284486681 converged=T n_steps=42 d_min=3.316213485555471 site_type=atop dE_rel_meV=0 original_idx=103 rank=82 E_MACE=-574.5558229865574 pbc="T T T"
O        8.47808675      11.58937293       9.35336835  T       0.00000000       0.00000000       0.00000000
O       11.49466653       5.41334055       9.37714117  T       0.00000000       0.00000000       0.00000000
O       11.54666053       1.65905747      10.55619522  T       0.00000000       0.00000000       0.00000000
O       11.50829715      11.55403089       9.37404282  T       0.00000000       0.00000000       0.00000000
O        8.44501786       7.84382501      10.58186974  T       0.00000000       0.00000000       0.00000000
O        5.35103295      11.54430655       9.38015086  T       0.00000000       0.00000000       0.00000000
O        5.37940125       7.81364705      10.59580614  T       0.00000000       0.00000000       0.00000000
O        8.47002779       5.45128647       9.35803494  T       0.00000000       0.00000000       0.00000000
O       11.54319828       7.80734118      10.57642563  T       0.00000000       0.00000000       0.00000000
O        2.31444566       5.45944021       9.35130436  T       0.00000000       0.00000000       0.00000000
O        2.29555315       1.69203095      10.52266746  T       0.00000000       0.00000000       0.00000000
O        2.32032979      11.60265583       9.35378753  T       0.00000000       0.00000000       0.00000000
O        5.33680293       5.39784412       9.37882002  T       0.00000000       0.00000000       0.00000000
O        5.40287023       1.64318796      10.57325619  T       0.00000000       0.00000000       0.00000000
O        2.28193889       7.83937095      10.54565079  T       0.00000000       0.00000000       0.00000000
O        8.44500622       1.67737903      10.52982287  T       0.00000000       0.00000000       0.00000000
Pd       5.53656316       9.22760527       1.50000000  F       0.00000000       0.00000000       0.00000000
Pd       6.12277360       7.44878581       7.41078916  T       0.00000000       0.00000000       0.00000000
Pd       4.28815433       6.78245218       5.40241719  F       0.00000000       0.00000000       0.00000000
Pd       6.15173685       7.38208422       3.44535000  F       0.00000000       0.00000000       0.00000000
Pd       7.33266630       3.65249670       7.35673261  T       0.00000000       0.00000000       0.00000000
Pd       5.51948843       3.08419342       5.37702261  F       0.00000000       0.00000000       0.00000000
Pd       6.76691053       5.53656316       1.50000000  F       0.00000000       0.00000000       0.00000000
Pd       7.38208422       9.84277895       3.44535000  F       0.00000000       0.00000000       0.00000000
Pd       7.99725790       7.99725790       1.50000000  F       0.00000000       0.00000000       0.00000000
Pd       5.51951598       9.23590192       5.37700272  F       0.00000000       0.00000000       0.00000000
Pd       8.00616182       7.98477587       5.40628129  F       0.00000000       0.00000000       0.00000000
Pd       6.76691053      11.68830001       1.50000000  F       0.00000000       0.00000000       0.00000000
Pd       8.61243158       0.00000000       3.44535000  F       0.00000000       0.00000000       0.00000000
Pd       6.75606179      11.70364973       5.37992114  F       0.00000000       0.00000000       0.00000000
Pd       8.56269490      -0.01598812       7.40670963  T       0.00000000       0.00000000       0.00000000
Pd       9.84277895       8.61243158       3.44535000  F       0.00000000       0.00000000       0.00000000
Pd       7.38208422       3.69104211       3.44535000  F       0.00000000       0.00000000       0.00000000
Pd       3.69104211       8.61243158       3.44535000  F       0.00000000       0.00000000       0.00000000
Pd       9.81899352       8.61665342       7.50129008  T       0.00000000       0.00000000       0.00000000
Pd       9.22760527      10.45795264       1.50000000  F       0.00000000       0.00000000       0.00000000
Pd       7.33639625       9.80369749       7.35192095  T       0.00000000       0.00000000       0.00000000
Pd       1.84552105       7.99725790       1.50000000  F       0.00000000       0.00000000       0.00000000
Pd      11.68830001       9.22760527       1.50000000  F       0.00000000       0.00000000       0.00000000
Pd       0.60431863      11.70356305       5.37989931  F       0.00000000       0.00000000       0.00000000
Pd       8.61243158       6.15173685       3.44535000  F       0.00000000       0.00000000       0.00000000
Pd       6.75605293       5.55187564       5.37990856  F       0.00000000       0.00000000       0.00000000
Pd       8.55911627       6.13604681       7.41381535  T       0.00000000       0.00000000       0.00000000
Pd       7.99725790       1.84552105       1.50000000  F       0.00000000       0.00000000       0.00000000
Pd       9.84277895       2.46069474       3.44535000  F       0.00000000       0.00000000       0.00000000
Pd       8.00617313       1.83308050       5.40627808  F       0.00000000       0.00000000       0.00000000
Pd       9.82200531       2.46283587       7.50217888  T       0.00000000       0.00000000       0.00000000
Pd       9.22760527       4.30621579       1.50000000  F       0.00000000       0.00000000       0.00000000
Pd       4.92138948       4.92138948       3.44535000  F       0.00000000       0.00000000       0.00000000
Pd       9.22722207       4.29761474       5.41287912  F       0.00000000       0.00000000       0.00000000
Pd       4.92985698       4.96806141       7.40062250  T       0.00000000       0.00000000       0.00000000
Pd      10.45795264       6.76691053       1.50000000  F       0.00000000       0.00000000       0.00000000
Pd       0.00000000       7.38208422       3.44535000  F       0.00000000       0.00000000       0.00000000
Pd      10.43991375       6.78245558       5.40242713  F       0.00000000       0.00000000       0.00000000
Pd      12.26249478       7.45990818       7.39246351  T       0.00000000       0.00000000       0.00000000
Pd       4.92138948      11.07312632       3.44535000  F       0.00000000       0.00000000       0.00000000
Pd       1.23034737       9.84277895       3.44535000  F       0.00000000       0.00000000       0.00000000
Pd      11.67120661       9.23591801       5.37701028  F       0.00000000       0.00000000       0.00000000
Pd       1.18870588       9.80503302       7.35104744  T       0.00000000       0.00000000       0.00000000
Pd       0.61517368      11.68830001       1.50000000  F       0.00000000       0.00000000       0.00000000
Pd       2.46069474       0.00000000       3.44535000  F       0.00000000       0.00000000       0.00000000
Pd       2.41390213      -0.01045502       7.40337026  T       0.00000000       0.00000000       0.00000000
Pd       9.22719689      10.44932842       5.41286416  F       0.00000000       0.00000000       0.00000000
Pd       3.67561881       8.61702248       7.50336542  T       0.00000000       0.00000000       0.00000000
Pd       4.30621579       0.61517368       1.50000000  F       0.00000000       0.00000000       0.00000000
Pd      11.07312632       4.92138948       3.44535000  F       0.00000000       0.00000000       0.00000000
Pd       4.30621579       6.76691053       1.50000000  F       0.00000000       0.00000000       0.00000000
Pd       3.67053007       2.47266998       7.49804688  T       0.00000000       0.00000000       0.00000000
Pd       2.40689336       6.14592220       7.40231127  T       0.00000000       0.00000000       0.00000000
Pd       0.60433818       5.55187436       5.37993065  F       0.00000000       0.00000000       0.00000000
Pd       2.46069474       6.15173685       3.44535000  F       0.00000000       0.00000000       0.00000000
Pd       0.61517368       5.53656316       1.50000000  F       0.00000000       0.00000000       0.00000000
Pd       1.18099905       3.65766819       7.34999107  T       0.00000000       0.00000000       0.00000000
Pd      11.67123156       3.08419612       5.37703229  F       0.00000000       0.00000000       0.00000000
Pd       6.90143096       6.64711986       9.98012416  T       0.00000000       0.00000000       0.00000000
Pd       1.23034737       3.69104211       3.44535000  F       0.00000000       0.00000000       0.00000000
Pd      12.26839905       1.30576531       7.38654618  T       0.00000000       0.00000000       0.00000000
Pd      10.43990395       0.63072067       5.40242717  F       0.00000000       0.00000000       0.00000000
Pd       0.00000000       1.23034737       3.44535000  F       0.00000000       0.00000000       0.00000000
Pd       1.84552105       1.84552105       1.50000000  F       0.00000000       0.00000000       0.00000000
Pd      10.45795264       0.61517368       1.50000000  F       0.00000000       0.00000000       0.00000000
Pd      11.08675104      11.11047505       7.39722961  T       0.00000000       0.00000000       0.00000000
Pd       3.07550809      10.44932540       5.41290581  F       0.00000000       0.00000000       0.00000000
Pd       3.69104211       2.46069474       3.44535000  F       0.00000000       0.00000000       0.00000000
Pd       1.85442396       1.83305046       5.40626716  F       0.00000000       0.00000000       0.00000000
Pd      11.68830001       3.07586842       1.50000000  F       0.00000000       0.00000000       0.00000000
Pd       0.76240399       0.51683797       9.90545827  T       0.00000000       0.00000000       0.00000000
Pd       2.33493812       3.48044389       9.75207848  T       0.00000000       0.00000000       0.00000000
Pd       3.84202748       6.69955242       9.93063944  T       0.00000000       0.00000000       0.00000000
Pd       6.15173685       1.23034737       3.44535000  F       0.00000000       0.00000000       0.00000000
Pd       4.28818081       0.63072761       5.40241929  F       0.00000000       0.00000000       0.00000000
Pd       6.11328941       1.30316001       7.39056036  T       0.00000000       0.00000000       0.00000000
Pd       5.53656316       3.07586842       1.50000000  F       0.00000000       0.00000000       0.00000000
Pd       1.85444455       7.98478761       5.40627529  F       0.00000000       0.00000000       0.00000000
Pd       5.39154625       3.37686471       9.67464727  T       0.00000000       0.00000000       0.00000000
Pd       3.07586842      10.45795264       1.50000000  F       0.00000000       0.00000000       0.00000000
Pd       3.07586842       4.30621579       1.50000000  F       0.00000000       0.00000000       0.00000000
Pd       3.07547731       4.29761827       5.41291946  F       0.00000000       0.00000000       0.00000000
Pd      11.07626102       4.96456935       7.39900285  T       0.00000000       0.00000000       0.00000000
Pd      11.07312632      11.07312632       3.44535000  F       0.00000000       0.00000000       0.00000000
Pd      10.00536328       0.54376702       9.90637114  T       0.00000000       0.00000000       0.00000000
Pd       6.91549143       0.49954877       9.91247636  T       0.00000000       0.00000000       0.00000000
Pd       8.47950777       9.61333079       9.76959840  T       0.00000000       0.00000000       0.00000000
Pd       0.75357230       6.66834902       9.91654655  T       0.00000000       0.00000000       0.00000000
Pd       5.39550789       9.53317083       9.68196200  T       0.00000000       0.00000000       0.00000000
Pd      11.53980023       3.39553499       9.67077736  T       0.00000000       0.00000000       0.00000000
Pd       8.49036137       3.46808586       9.75831032  T       0.00000000       0.00000000       0.00000000
Pd       9.99209152       6.70162020       9.93468534  T       0.00000000       0.00000000       0.00000000
Pd       3.85320620       0.54560274       9.90983287  T       0.00000000       0.00000000       0.00000000
Pd       2.32891182       9.62310545       9.76232197  T       0.00000000       0.00000000       0.00000000
Pd       4.93252979      11.11096743       7.39852592  T       0.00000000       0.00000000       0.00000000
Pd      11.54737966       9.53584117       9.67377822  T       0.00000000       0.00000000       0.00000000
C        6.69602437       5.70271109      12.29833854  T       0.00000000       0.00000000       0.00000000
O        5.88899700       5.95137534      13.08167624  T       0.00000000       0.00000000       0.00000000
