114
Lattice="12.303473692417112 0.0 0.0 0.0 12.303473692417114 0.0 0.0 0.0 29.165420746594243" Properties=species:S:1:pos:R:3:move_mask:L:1:momenta:R:3 adsorbate_info="_JSON {\"site\": {\"coordinates\": [10.051483713125226, 7.724718795621392, 10.408198402423384], \"connectivity\": 2, \"topology\": [4, 8], \"n_vector\": [-0.004277221382733972, 0.03700979973224834, 0.9993057490583259], \"h_vector\": [-0.9999551672285311, 0.007532334013665248, 0.005738246880983638], \"site_formula\": {\"O\": 2}}, \"smiles\": \"Cl[C]=O\", \"mdf\": 2.2115058630252196, \"adsorbate_formula\": \"CO\"}" mace_E=-574.4928677573213 converged=T n_steps=41 d_min=2.549043727719493 site_type=atop dE_rel_meV=0 original_idx=139 rank=84 E_MACE=-574.5544882377736 pbc="T T T"
O        8.46209860      11.58277702       9.35348926  T       0.00000000       0.00000000       0.00000000
O       11.49540482       5.37326364       9.38755059  T       0.00000000       0.00000000       0.00000000
O       11.54073971       1.62395070      10.58108838  T       0.00000000       0.00000000       0.00000000
O       11.49559291      11.52936801       9.38472824  T       0.00000000       0.00000000       0.00000000
O        8.43364005       7.81273696      10.52945851  T       0.00000000       0.00000000       0.00000000
O        5.34271653      11.53770631       9.38214468  T       0.00000000       0.00000000       0.00000000
O        5.38919371       7.78516338      10.56088411  T       0.00000000       0.00000000       0.00000000
O        8.45913211       5.42431974       9.34444955  T       0.00000000       0.00000000       0.00000000
O       11.52704384       7.77949979      10.56445389  T       0.00000000       0.00000000       0.00000000
O        2.30826763       5.43227896       9.35177928  T       0.00000000       0.00000000       0.00000000
O        2.27813812       1.66610329      10.53736941  T       0.00000000       0.00000000       0.00000000
O        2.31356025      11.58430073       9.35405090  T       0.00000000       0.00000000       0.00000000
O        5.34001884       5.38176257       9.37929331  T       0.00000000       0.00000000       0.00000000
O        5.38932385       1.63476349      10.57973049  T       0.00000000       0.00000000       0.00000000
O        2.28057798       7.81832842      10.53865038  T       0.00000000       0.00000000       0.00000000
O        8.43607862       1.66264814      10.53978700  T       0.00000000       0.00000000       0.00000000
Pd       5.53656316       9.22760527       1.50000000  F       0.00000000       0.00000000       0.00000000
Pd       6.10986840       7.45363041       7.39060433  T       0.00000000       0.00000000       0.00000000
Pd       4.28815433       6.78245218       5.40241719  F       0.00000000       0.00000000       0.00000000
Pd       6.15173685       7.38208422       3.44535000  F       0.00000000       0.00000000       0.00000000
Pd       7.33287644       3.65346003       7.34927219  T       0.00000000       0.00000000       0.00000000
Pd       5.51948843       3.08419342       5.37702261  F       0.00000000       0.00000000       0.00000000
Pd       6.76691053       5.53656316       1.50000000  F       0.00000000       0.00000000       0.00000000
Pd       7.38208422       9.84277895       3.44535000  F       0.00000000       0.00000000       0.00000000
Pd       7.99725790       7.99725790       1.50000000  F       0.00000000       0.00000000       0.00000000
Pd       5.51951598       9.23590192       5.37700272  F       0.00000000       0.00000000       0.00000000
Pd       8.00616182       7.98477587       5.40628129  F       0.00000000       0.00000000       0.00000000
Pd       6.76691053      11.68830001       1.50000000  F       0.00000000       0.00000000       0.00000000
Pd       8.61243158       0.00000000       3.44535000  F       0.00000000       0.00000000       0.00000000
Pd       6.75606179      11.70364973       5.37992114  F       0.00000000       0.00000000       0.00000000
Pd       8.56137456      -0.01206607       7.40704241  T       0.00000000       0.00000000       0.00000000
Pd       9.84277895       8.61243158       3.44535000  F       0.00000000       0.00000000       0.00000000
Pd       7.38208422       3.69104211       3.44535000  F       0.00000000       0.00000000       0.00000000
Pd       3.69104211       8.61243158       3.44535000  F       0.00000000       0.00000000       0.00000000
Pd       9.82132785       8.61863182       7.50152406  T       0.00000000       0.00000000       0.00000000
Pd       9.22760527      10.45795264       1.50000000  F       0.00000000       0.00000000       0.00000000
Pd       7.33360850       9.80450820       7.35022397  T       0.00000000       0.00000000       0.00000000
Pd       1.84552105       7.99725790       1.50000000  F       0.00000000       0.00000000       0.00000000
Pd      11.68830001       9.22760527       1.50000000  F       0.00000000       0.00000000       0.00000000
Pd       0.60431863      11.70356305       5.37989931  F       0.00000000       0.00000000       0.00000000
Pd       8.61243158       6.15173685       3.44535000  F       0.00000000       0.00000000       0.00000000
Pd       6.75605293       5.55187564       5.37990856  F       0.00000000       0.00000000       0.00000000
Pd       8.56180355       6.14106501       7.40247655  T       0.00000000       0.00000000       0.00000000
Pd       7.99725790       1.84552105       1.50000000  F       0.00000000       0.00000000       0.00000000
Pd       9.84277895       2.46069474       3.44535000  F       0.00000000       0.00000000       0.00000000
Pd       8.00617313       1.83308050       5.40627808  F       0.00000000       0.00000000       0.00000000
Pd       9.82044996       2.46707998       7.49952811  T       0.00000000       0.00000000       0.00000000
Pd       9.22760527       4.30621579       1.50000000  F       0.00000000       0.00000000       0.00000000
Pd       4.92138948       4.92138948       3.44535000  F       0.00000000       0.00000000       0.00000000
Pd       9.22722207       4.29761474       5.41287912  F       0.00000000       0.00000000       0.00000000
Pd       4.92677591       4.95706563       7.39908826  T       0.00000000       0.00000000       0.00000000
Pd      10.45795264       6.76691053       1.50000000  F       0.00000000       0.00000000       0.00000000
Pd       0.00000000       7.38208422       3.44535000  F       0.00000000       0.00000000       0.00000000
Pd      10.43991375       6.78245558       5.40242713  F       0.00000000       0.00000000       0.00000000
Pd      12.26478229       7.45278875       7.39434124  T       0.00000000       0.00000000       0.00000000
Pd       4.92138948      11.07312632       3.44535000  F       0.00000000       0.00000000       0.00000000
Pd       1.23034737       9.84277895       3.44535000  F       0.00000000       0.00000000       0.00000000
Pd      11.67120661       9.23591801       5.37701028  F       0.00000000       0.00000000       0.00000000
Pd       1.18204838       9.80372622       7.35221046  T       0.00000000       0.00000000       0.00000000
Pd       0.61517368      11.68830001       1.50000000  F       0.00000000       0.00000000       0.00000000
Pd       2.46069474       0.00000000       3.44535000  F       0.00000000       0.00000000       0.00000000
Pd       2.40800676      -0.01268351       7.40758676  T       0.00000000       0.00000000       0.00000000
Pd       9.22719689      10.44932842       5.41286416  F       0.00000000       0.00000000       0.00000000
Pd       3.66727315       8.61697999       7.50072493  T       0.00000000       0.00000000       0.00000000
Pd       4.30621579       0.61517368       1.50000000  F       0.00000000       0.00000000       0.00000000
Pd      11.07312632       4.92138948       3.44535000  F       0.00000000       0.00000000       0.00000000
Pd       4.30621579       6.76691053       1.50000000  F       0.00000000       0.00000000       0.00000000
Pd       3.66913269       2.46241354       7.50281017  T       0.00000000       0.00000000       0.00000000
Pd       2.40697670       6.13859582       7.40578650  T       0.00000000       0.00000000       0.00000000
Pd       0.60433818       5.55187436       5.37993065  F       0.00000000       0.00000000       0.00000000
Pd       2.46069474       6.15173685       3.44535000  F       0.00000000       0.00000000       0.00000000
Pd       0.61517368       5.53656316       1.50000000  F       0.00000000       0.00000000       0.00000000
Pd       1.18343028       3.65023649       7.35001477  T       0.00000000       0.00000000       0.00000000
Pd      11.67123156       3.08419612       5.37703229  F       0.00000000       0.00000000       0.00000000
Pd       6.90252089       6.63998264       9.90668764  T       0.00000000       0.00000000       0.00000000
Pd       1.23034737       3.69104211       3.44535000  F       0.00000000       0.00000000       0.00000000
Pd      12.26341810       1.30215970       7.39494475  T       0.00000000       0.00000000       0.00000000
Pd      10.43990395       0.63072067       5.40242717  F       0.00000000       0.00000000       0.00000000
Pd       0.00000000       1.23034737       3.44535000  F       0.00000000       0.00000000       0.00000000
Pd       1.84552105       1.84552105       1.50000000  F       0.00000000       0.00000000       0.00000000
Pd      10.45795264       0.61517368       1.50000000  F       0.00000000       0.00000000       0.00000000
Pd      11.08277335      11.11355879       7.40154221  T       0.00000000       0.00000000       0.00000000
Pd       3.07550809      10.44932540       5.41290581  F       0.00000000       0.00000000       0.00000000
Pd       3.69104211       2.46069474       3.44535000  F       0.00000000       0.00000000       0.00000000
Pd       1.85442396       1.83305046       5.40626716  F       0.00000000       0.00000000       0.00000000
Pd      11.68830001       3.07586842       1.50000000  F       0.00000000       0.00000000       0.00000000
Pd       0.75228089       0.48631536       9.91805814  T       0.00000000       0.00000000       0.00000000
Pd       2.31755488       3.45219120       9.75763772  T       0.00000000       0.00000000       0.00000000
Pd       3.84001167       6.68165409       9.90984641  T       0.00000000       0.00000000       0.00000000
Pd       6.15173685       1.23034737       3.44535000  F       0.00000000       0.00000000       0.00000000
Pd       4.28818081       0.63072761       5.40241929  F       0.00000000       0.00000000       0.00000000
Pd       6.11344993       1.30314477       7.39418679  T       0.00000000       0.00000000       0.00000000
Pd       5.53656316       3.07586842       1.50000000  F       0.00000000       0.00000000       0.00000000
Pd       1.85444455       7.98478761       5.40627529  F       0.00000000       0.00000000       0.00000000
Pd       5.38645856       3.36665833       9.68050096  T       0.00000000       0.00000000       0.00000000
Pd       3.07586842      10.45795264       1.50000000  F       0.00000000       0.00000000       0.00000000
Pd       3.07586842       4.30621579       1.50000000  F       0.00000000       0.00000000       0.00000000
Pd       3.07547731       4.29761827       5.41291946  F       0.00000000       0.00000000       0.00000000
Pd      11.08539121       4.96148182       7.40249509  T       0.00000000       0.00000000       0.00000000
Pd      11.07312632      11.07312632       3.44535000  F       0.00000000       0.00000000       0.00000000
Pd       9.99482650       0.52258119       9.91974795  T       0.00000000       0.00000000       0.00000000
Pd       6.90357339       0.49196580       9.91710696  T       0.00000000       0.00000000       0.00000000
Pd       8.47557982       9.60305093       9.75888838  T       0.00000000       0.00000000       0.00000000
Pd       0.74904274       6.63812715       9.92343900  T       0.00000000       0.00000000       0.00000000
Pd       5.38831128       9.51953029       9.66821458  T       0.00000000       0.00000000       0.00000000
Pd      11.54157273       3.35648225       9.68040943  T       0.00000000       0.00000000       0.00000000
Pd       8.47440748       3.44621167       9.75479878  T       0.00000000       0.00000000       0.00000000
Pd       9.99028617       6.66726785       9.91264389  T       0.00000000       0.00000000       0.00000000
Pd       3.84262996       0.53162553       9.91728908  T       0.00000000       0.00000000       0.00000000
Pd       2.32175573       9.60585542       9.76236273  T       0.00000000       0.00000000       0.00000000
Pd       4.92964995      11.11346811       7.39951211  T       0.00000000       0.00000000       0.00000000
Pd      11.53392017       9.51965164       9.68756019  T       0.00000000       0.00000000       0.00000000
C       12.41968521       7.99728966      13.47683459  T       0.00000000       0.00000000       0.00000000
O       12.48974487       9.14004597      13.39144904  T       0.00000000       0.00000000       0.00000000
