114
Lattice="12.303473692417112 0.0 0.0 0.0 12.303473692417114 0.0 0.0 0.0 29.165420746594243" Properties=species:S:1:pos:R:3:move_mask:L:1:momenta:R:3 adsorbate_info="_JSON {\"site\": {\"coordinates\": [4.282482462352648, 4.654094940445831, 9.608765156951673], \"connectivity\": 4, \"topology\": [12, 87, 88, 94], \"n_vector\": [-8.737288828365681e-05, -0.03801899199023333, 0.9992770129518765], \"h_vector\": [-0.011435222653961115, 0.9880463101994236, -0.15373263994402397], \"site_formula\": {\"O\": 1, \"Pd\": 3}}, \"smiles\": \"Cl[C]=O\", \"mdf\": 1.9792007043570699, \"adsorbate_formula\": \"CO\"}" mace_E=-574.9884786031208 converged=T n_steps=71 d_min=2.013831168112259 site_type=unknown dE_rel_meV=0 original_idx=55 rank=0 E_MACE=-575.272268767819 pbc="T T T"
O        8.43790243      11.58931004       9.34508487  T       0.00000000       0.00000000       0.00000000
O       11.48250529       5.39435932       9.38168398  T       0.00000000       0.00000000       0.00000000
O       11.51179267       1.63754726      10.57209988  T       0.00000000       0.00000000       0.00000000
O       11.46757771      11.54082767       9.38315693  T       0.00000000       0.00000000       0.00000000
O        8.43011893       7.82976804      10.55708257  T       0.00000000       0.00000000       0.00000000
O        5.31726238      11.52719309       9.37650442  T       0.00000000       0.00000000       0.00000000
O        5.37984935       7.79168481      10.57792620  T       0.00000000       0.00000000       0.00000000
O        8.46445316       5.44650403       9.34948210  T       0.00000000       0.00000000       0.00000000
O       11.52931052       7.79528400      10.59250098  T       0.00000000       0.00000000       0.00000000
O        2.28934837       5.44350423       9.35422601  T       0.00000000       0.00000000       0.00000000
O        2.25200586       1.66640633      10.53857840  T       0.00000000       0.00000000       0.00000000
O        2.27737105      11.58803141       9.34223767  T       0.00000000       0.00000000       0.00000000
O        5.33136155       5.43206853       9.32475794  T       0.00000000       0.00000000       0.00000000
O        5.35793699       1.56193971      10.64258946  T       0.00000000       0.00000000       0.00000000
O        2.26232885       7.82669506      10.55847582  T       0.00000000       0.00000000       0.00000000
O        8.40428411       1.67005063      10.53335706  T       0.00000000       0.00000000       0.00000000
Pd       5.53656316       9.22760527       1.50000000  F       0.00000000       0.00000000       0.00000000
Pd       6.10145559       7.45069105       7.38330299  T       0.00000000       0.00000000       0.00000000
Pd       4.28815433       6.78245218       5.40241719  F       0.00000000       0.00000000       0.00000000
Pd       6.15173685       7.38208422       3.44535000  F       0.00000000       0.00000000       0.00000000
Pd       7.31354516       3.65664303       7.36666278  T       0.00000000       0.00000000       0.00000000
Pd       5.51948843       3.08419342       5.37702261  F       0.00000000       0.00000000       0.00000000
Pd       6.76691053       5.53656316       1.50000000  F       0.00000000       0.00000000       0.00000000
Pd       7.38208422       9.84277895       3.44535000  F       0.00000000       0.00000000       0.00000000
Pd       7.99725790       7.99725790       1.50000000  F       0.00000000       0.00000000       0.00000000
Pd       5.51951598       9.23590192       5.37700272  F       0.00000000       0.00000000       0.00000000
Pd       8.00616182       7.98477587       5.40628129  F       0.00000000       0.00000000       0.00000000
Pd       6.76691053      11.68830001       1.50000000  F       0.00000000       0.00000000       0.00000000
Pd       8.61243158       0.00000000       3.44535000  F       0.00000000       0.00000000       0.00000000
Pd       6.75606179      11.70364973       5.37992114  F       0.00000000       0.00000000       0.00000000
Pd       8.55305423      -0.00461686       7.40227742  T       0.00000000       0.00000000       0.00000000
Pd       9.84277895       8.61243158       3.44535000  F       0.00000000       0.00000000       0.00000000
Pd       7.38208422       3.69104211       3.44535000  F       0.00000000       0.00000000       0.00000000
Pd       3.69104211       8.61243158       3.44535000  F       0.00000000       0.00000000       0.00000000
Pd       9.81710989       8.61459774       7.50659200  T       0.00000000       0.00000000       0.00000000
Pd       9.22760527      10.45795264       1.50000000  F       0.00000000       0.00000000       0.00000000
Pd       7.33054763       9.80384304       7.34862245  T       0.00000000       0.00000000       0.00000000
Pd       1.84552105       7.99725790       1.50000000  F       0.00000000       0.00000000       0.00000000
Pd      11.68830001       9.22760527       1.50000000  F       0.00000000       0.00000000       0.00000000
Pd       0.60431863      11.70356305       5.37989931  F       0.00000000       0.00000000       0.00000000
Pd       8.61243158       6.15173685       3.44535000  F       0.00000000       0.00000000       0.00000000
Pd       6.75605293       5.55187564       5.37990856  F       0.00000000       0.00000000       0.00000000
Pd       8.55407629       6.13839530       7.40578187  T       0.00000000       0.00000000       0.00000000
Pd       7.99725790       1.84552105       1.50000000  F       0.00000000       0.00000000       0.00000000
Pd       9.84277895       2.46069474       3.44535000  F       0.00000000       0.00000000       0.00000000
Pd       8.00617313       1.83308050       5.40627808  F       0.00000000       0.00000000       0.00000000
Pd       9.80996835       2.47124877       7.49760725  T       0.00000000       0.00000000       0.00000000
Pd       9.22760527       4.30621579       1.50000000  F       0.00000000       0.00000000       0.00000000
Pd       4.92138948       4.92138948       3.44535000  F       0.00000000       0.00000000       0.00000000
Pd       9.22722207       4.29761474       5.41287912  F       0.00000000       0.00000000       0.00000000
Pd       4.92066660       4.92958445       7.37796644  T       0.00000000       0.00000000       0.00000000
Pd      10.45795264       6.76691053       1.50000000  F       0.00000000       0.00000000       0.00000000
Pd       0.00000000       7.38208422       3.44535000  F       0.00000000       0.00000000       0.00000000
Pd      10.43991375       6.78245558       5.40242713  F       0.00000000       0.00000000       0.00000000
Pd      12.26396714       7.45845603       7.39542057  T       0.00000000       0.00000000       0.00000000
Pd       4.92138948      11.07312632       3.44535000  F       0.00000000       0.00000000       0.00000000
Pd       1.23034737       9.84277895       3.44535000  F       0.00000000       0.00000000       0.00000000
Pd      11.67120661       9.23591801       5.37701028  F       0.00000000       0.00000000       0.00000000
Pd       1.17537472       9.80961724       7.34998492  T       0.00000000       0.00000000       0.00000000
Pd       0.61517368      11.68830001       1.50000000  F       0.00000000       0.00000000       0.00000000
Pd       2.46069474       0.00000000       3.44535000  F       0.00000000       0.00000000       0.00000000
Pd       2.40837368       0.00122049       7.40184799  T       0.00000000       0.00000000       0.00000000
Pd       9.22719689      10.44932842       5.41286416  F       0.00000000       0.00000000       0.00000000
Pd       3.65788460       8.62108317       7.50304503  T       0.00000000       0.00000000       0.00000000
Pd       4.30621579       0.61517368       1.50000000  F       0.00000000       0.00000000       0.00000000
Pd      11.07312632       4.92138948       3.44535000  F       0.00000000       0.00000000       0.00000000
Pd       4.30621579       6.76691053       1.50000000  F       0.00000000       0.00000000       0.00000000
Pd       3.68906195       2.47676884       7.54271242  T       0.00000000       0.00000000       0.00000000
Pd       2.40449944       6.13321576       7.40758252  T       0.00000000       0.00000000       0.00000000
Pd       0.60433818       5.55187436       5.37993065  F       0.00000000       0.00000000       0.00000000
Pd       2.46069474       6.15173685       3.44535000  F       0.00000000       0.00000000       0.00000000
Pd       0.61517368       5.53656316       1.50000000  F       0.00000000       0.00000000       0.00000000
Pd       1.18400818       3.64312291       7.34473179  T       0.00000000       0.00000000       0.00000000
Pd      11.67123156       3.08419612       5.37703229  F       0.00000000       0.00000000       0.00000000
Pd       6.90188377       6.66683015       9.90682843  T       0.00000000       0.00000000       0.00000000
Pd       1.23034737       3.69104211       3.44535000  F       0.00000000       0.00000000       0.00000000
Pd      12.25504357       1.30125149       7.39114071  T       0.00000000       0.00000000       0.00000000
Pd      10.43990395       0.63072067       5.40242717  F       0.00000000       0.00000000       0.00000000
Pd       0.00000000       1.23034737       3.44535000  F       0.00000000       0.00000000       0.00000000
Pd       1.84552105       1.84552105       1.50000000  F       0.00000000       0.00000000       0.00000000
Pd      10.45795264       0.61517368       1.50000000  F       0.00000000       0.00000000       0.00000000
Pd      11.07499889      11.11155196       7.39979035  T       0.00000000       0.00000000       0.00000000
Pd       3.07550809      10.44932540       5.41290581  F       0.00000000       0.00000000       0.00000000
Pd       3.69104211       2.46069474       3.44535000  F       0.00000000       0.00000000       0.00000000
Pd       1.85442396       1.83305046       5.40626716  F       0.00000000       0.00000000       0.00000000
Pd      11.68830001       3.07586842       1.50000000  F       0.00000000       0.00000000       0.00000000
Pd       0.72071560       0.49453046       9.91282493  T       0.00000000       0.00000000       0.00000000
Pd       2.27728063       3.45805713       9.76274194  T       0.00000000       0.00000000       0.00000000
Pd       3.82586097       6.70393041       9.90772459  T       0.00000000       0.00000000       0.00000000
Pd       6.15173685       1.23034737       3.44535000  F       0.00000000       0.00000000       0.00000000
Pd       4.28818081       0.63072761       5.40241929  F       0.00000000       0.00000000       0.00000000
Pd       6.10653453       1.31151618       7.39719081  T       0.00000000       0.00000000       0.00000000
Pd       5.53656316       3.07586842       1.50000000  F       0.00000000       0.00000000       0.00000000
Pd       1.85444455       7.98478761       5.40627529  F       0.00000000       0.00000000       0.00000000
Pd       5.36258863       3.43512771       9.89707618  T       0.00000000       0.00000000       0.00000000
Pd       3.07586842      10.45795264       1.50000000  F       0.00000000       0.00000000       0.00000000
Pd       3.07586842       4.30621579       1.50000000  F       0.00000000       0.00000000       0.00000000
Pd       3.07547731       4.29761827       5.41291946  F       0.00000000       0.00000000       0.00000000
Pd      11.08339093       4.96588717       7.39709458  T       0.00000000       0.00000000       0.00000000
Pd      11.07312632      11.07312632       3.44535000  F       0.00000000       0.00000000       0.00000000
Pd       9.96567210       0.53217061       9.91988183  T       0.00000000       0.00000000       0.00000000
Pd       6.87573173       0.48780544       9.90469987  T       0.00000000       0.00000000       0.00000000
Pd       8.45788352       9.61136374       9.76419922  T       0.00000000       0.00000000       0.00000000
Pd       0.73719305       6.65543635       9.92440043  T       0.00000000       0.00000000       0.00000000
Pd       5.37190991       9.52122014       9.68033983  T       0.00000000       0.00000000       0.00000000
Pd      11.51464553       3.37664044       9.68384799  T       0.00000000       0.00000000       0.00000000
Pd       8.48076761       3.45968929       9.75396744  T       0.00000000       0.00000000       0.00000000
Pd       9.98709885       6.69243087       9.92919255  T       0.00000000       0.00000000       0.00000000
Pd       3.81020406       0.51972545       9.91191802  T       0.00000000       0.00000000       0.00000000
Pd       2.29286398       9.60940495       9.76543894  T       0.00000000       0.00000000       0.00000000
Pd       4.92830574      11.11514328       7.39294141  T       0.00000000       0.00000000       0.00000000
Pd      11.52041925       9.52767194       9.69361249  T       0.00000000       0.00000000       0.00000000
C        5.31363683       3.97601251      11.71649129  T       0.00000000       0.00000000       0.00000000
O        5.17797408       4.27010033      12.82392381  T       0.00000000       0.00000000       0.00000000
