114
Lattice="12.303473692417112 0.0 0.0 0.0 12.303473692417114 0.0 0.0 0.0 29.165420746594243" Properties=species:S:1:pos:R:3:move_mask:L:1:momenta:R:3 adsorbate_info="_JSON {\"site\": {\"coordinates\": [6.471514351177532, 2.762390650152007, 9.901598426890697], \"connectivity\": 3, \"topology\": [13, 94, 106], \"n_vector\": [0.0717998517719375, 0.349858217864363, 0.9340471126652551], \"h_vector\": [-0.004778466908353023, 0.9138290446063153, -0.4060709833119263], \"site_formula\": {\"O\": 1, \"Pd\": 2}}, \"smiles\": \"Cl[C]=O\", \"mdf\": 2.6358530223249206, \"adsorbate_formula\": \"CO\"}" mace_E=-574.4527945962491 converged=T n_steps=38 d_min=2.013239549988801 site_type=bridge dE_rel_meV=0 original_idx=85 rank=9 E_MACE=-575.2680620049769 pbc="T T T"
O        8.47411698      11.57551356       9.34850814  T       0.00000000       0.00000000       0.00000000
O       11.50190107       5.38110773       9.38139458  T       0.00000000       0.00000000       0.00000000
O       11.55838515       1.62312684      10.55449107  T       0.00000000       0.00000000       0.00000000
O       11.51359380      11.51677853       9.37336841  T       0.00000000       0.00000000       0.00000000
O        8.43933276       7.81447223      10.54433687  T       0.00000000       0.00000000       0.00000000
O        5.35428385      11.52357729       9.38779712  T       0.00000000       0.00000000       0.00000000
O        5.39879985       7.77464379      10.57960496  T       0.00000000       0.00000000       0.00000000
O        8.47215531       5.43185539       9.35498163  T       0.00000000       0.00000000       0.00000000
O       11.55085700       7.77416051      10.58793409  T       0.00000000       0.00000000       0.00000000
O        2.32181182       5.43130874       9.34987767  T       0.00000000       0.00000000       0.00000000
O        2.29069476       1.66309535      10.53350382  T       0.00000000       0.00000000       0.00000000
O        2.32924179      11.57733981       9.35078118  T       0.00000000       0.00000000       0.00000000
O        5.35401338       5.37461855       9.38170180  T       0.00000000       0.00000000       0.00000000
O        5.40441830       1.62649702      10.58154508  T       0.00000000       0.00000000       0.00000000
O        2.29453319       7.81119119      10.54338904  T       0.00000000       0.00000000       0.00000000
O        8.45517616       1.66106098      10.51767365  T       0.00000000       0.00000000       0.00000000
Pd       5.53656316       9.22760527       1.50000000  F       0.00000000       0.00000000       0.00000000
Pd       6.11031165       7.45257589       7.39758314  T       0.00000000       0.00000000       0.00000000
Pd       4.28815433       6.78245218       5.40241719  F       0.00000000       0.00000000       0.00000000
Pd       6.15173685       7.38208422       3.44535000  F       0.00000000       0.00000000       0.00000000
Pd       7.33471991       3.64930262       7.35151959  T       0.00000000       0.00000000       0.00000000
Pd       5.51948843       3.08419342       5.37702261  F       0.00000000       0.00000000       0.00000000
Pd       6.76691053       5.53656316       1.50000000  F       0.00000000       0.00000000       0.00000000
Pd       7.38208422       9.84277895       3.44535000  F       0.00000000       0.00000000       0.00000000
Pd       7.99725790       7.99725790       1.50000000  F       0.00000000       0.00000000       0.00000000
Pd       5.51951598       9.23590192       5.37700272  F       0.00000000       0.00000000       0.00000000
Pd       8.00616182       7.98477587       5.40628129  F       0.00000000       0.00000000       0.00000000
Pd       6.76691053      11.68830001       1.50000000  F       0.00000000       0.00000000       0.00000000
Pd       8.61243158       0.00000000       3.44535000  F       0.00000000       0.00000000       0.00000000
Pd       6.75606179      11.70364973       5.37992114  F       0.00000000       0.00000000       0.00000000
Pd       8.55930562      -0.01556370       7.40325457  T       0.00000000       0.00000000       0.00000000
Pd       9.84277895       8.61243158       3.44535000  F       0.00000000       0.00000000       0.00000000
Pd       7.38208422       3.69104211       3.44535000  F       0.00000000       0.00000000       0.00000000
Pd       3.69104211       8.61243158       3.44535000  F       0.00000000       0.00000000       0.00000000
Pd       9.82598567       8.61314127       7.50415221  T       0.00000000       0.00000000       0.00000000
Pd       9.22760527      10.45795264       1.50000000  F       0.00000000       0.00000000       0.00000000
Pd       7.33558615       9.79633880       7.35122240  T       0.00000000       0.00000000       0.00000000
Pd       1.84552105       7.99725790       1.50000000  F       0.00000000       0.00000000       0.00000000
Pd      11.68830001       9.22760527       1.50000000  F       0.00000000       0.00000000       0.00000000
Pd       0.60431863      11.70356305       5.37989931  F       0.00000000       0.00000000       0.00000000
Pd       8.61243158       6.15173685       3.44535000  F       0.00000000       0.00000000       0.00000000
Pd       6.75605293       5.55187564       5.37990856  F       0.00000000       0.00000000       0.00000000
Pd       8.55893746       6.14095164       7.40698489  T       0.00000000       0.00000000       0.00000000
Pd       7.99725790       1.84552105       1.50000000  F       0.00000000       0.00000000       0.00000000
Pd       9.84277895       2.46069474       3.44535000  F       0.00000000       0.00000000       0.00000000
Pd       8.00617313       1.83308050       5.40627808  F       0.00000000       0.00000000       0.00000000
Pd       9.82590460       2.46465411       7.49578870  T       0.00000000       0.00000000       0.00000000
Pd       9.22760527       4.30621579       1.50000000  F       0.00000000       0.00000000       0.00000000
Pd       4.92138948       4.92138948       3.44535000  F       0.00000000       0.00000000       0.00000000
Pd       9.22722207       4.29761474       5.41287912  F       0.00000000       0.00000000       0.00000000
Pd       4.93506695       4.95727705       7.40306079  T       0.00000000       0.00000000       0.00000000
Pd      10.45795264       6.76691053       1.50000000  F       0.00000000       0.00000000       0.00000000
Pd       0.00000000       7.38208422       3.44535000  F       0.00000000       0.00000000       0.00000000
Pd      10.43991375       6.78245558       5.40242713  F       0.00000000       0.00000000       0.00000000
Pd      12.26535289       7.45678626       7.39890601  T       0.00000000       0.00000000       0.00000000
Pd       4.92138948      11.07312632       3.44535000  F       0.00000000       0.00000000       0.00000000
Pd       1.23034737       9.84277895       3.44535000  F       0.00000000       0.00000000       0.00000000
Pd      11.67120661       9.23591801       5.37701028  F       0.00000000       0.00000000       0.00000000
Pd       1.18500698       9.79980167       7.35398576  T       0.00000000       0.00000000       0.00000000
Pd       0.61517368      11.68830001       1.50000000  F       0.00000000       0.00000000       0.00000000
Pd       2.46069474       0.00000000       3.44535000  F       0.00000000       0.00000000       0.00000000
Pd       2.41414814      -0.01367097       7.40493755  T       0.00000000       0.00000000       0.00000000
Pd       9.22719689      10.44932842       5.41286416  F       0.00000000       0.00000000       0.00000000
Pd       3.67575725       8.61710336       7.49859580  T       0.00000000       0.00000000       0.00000000
Pd       4.30621579       0.61517368       1.50000000  F       0.00000000       0.00000000       0.00000000
Pd      11.07312632       4.92138948       3.44535000  F       0.00000000       0.00000000       0.00000000
Pd       4.30621579       6.76691053       1.50000000  F       0.00000000       0.00000000       0.00000000
Pd       3.67492515       2.46409734       7.50070815  T       0.00000000       0.00000000       0.00000000
Pd       2.41041492       6.14083735       7.40377569  T       0.00000000       0.00000000       0.00000000
Pd       0.60433818       5.55187436       5.37993065  F       0.00000000       0.00000000       0.00000000
Pd       2.46069474       6.15173685       3.44535000  F       0.00000000       0.00000000       0.00000000
Pd       0.61517368       5.53656316       1.50000000  F       0.00000000       0.00000000       0.00000000
Pd       1.18199954       3.64790887       7.35069565  T       0.00000000       0.00000000       0.00000000
Pd      11.67123156       3.08419612       5.37703229  F       0.00000000       0.00000000       0.00000000
Pd       6.91127592       6.63789904       9.91665057  T       0.00000000       0.00000000       0.00000000
Pd       1.23034737       3.69104211       3.44535000  F       0.00000000       0.00000000       0.00000000
Pd      12.26408234       1.30060799       7.39563766  T       0.00000000       0.00000000       0.00000000
Pd      10.43990395       0.63072067       5.40242717  F       0.00000000       0.00000000       0.00000000
Pd       0.00000000       1.23034737       3.44535000  F       0.00000000       0.00000000       0.00000000
Pd       1.84552105       1.84552105       1.50000000  F       0.00000000       0.00000000       0.00000000
Pd      10.45795264       0.61517368       1.50000000  F       0.00000000       0.00000000       0.00000000
Pd      11.08638540      11.10494081       7.39804068  T       0.00000000       0.00000000       0.00000000
Pd       3.07550809      10.44932540       5.41290581  F       0.00000000       0.00000000       0.00000000
Pd       3.69104211       2.46069474       3.44535000  F       0.00000000       0.00000000       0.00000000
Pd       1.85442396       1.83305046       5.40626716  F       0.00000000       0.00000000       0.00000000
Pd      11.68830001       3.07586842       1.50000000  F       0.00000000       0.00000000       0.00000000
Pd       0.76645833       0.48122878       9.90444267  T       0.00000000       0.00000000       0.00000000
Pd       2.33262316       3.45276831       9.75734388  T       0.00000000       0.00000000       0.00000000
Pd       3.85304057       6.67147787       9.91922698  T       0.00000000       0.00000000       0.00000000
Pd       6.15173685       1.23034737       3.44535000  F       0.00000000       0.00000000       0.00000000
Pd       4.28818081       0.63072761       5.40241929  F       0.00000000       0.00000000       0.00000000
Pd       6.11219934       1.30466384       7.39748584  T       0.00000000       0.00000000       0.00000000
Pd       5.53656316       3.07586842       1.50000000  F       0.00000000       0.00000000       0.00000000
Pd       1.85444455       7.98478761       5.40627529  F       0.00000000       0.00000000       0.00000000
Pd       5.40390884       3.36185019       9.68782880  T       0.00000000       0.00000000       0.00000000
Pd       3.07586842      10.45795264       1.50000000  F       0.00000000       0.00000000       0.00000000
Pd       3.07586842       4.30621579       1.50000000  F       0.00000000       0.00000000       0.00000000
Pd       3.07547731       4.29761827       5.41291946  F       0.00000000       0.00000000       0.00000000
Pd      11.08512546       4.96525706       7.40037919  T       0.00000000       0.00000000       0.00000000
Pd      11.07312632      11.07312632       3.44535000  F       0.00000000       0.00000000       0.00000000
Pd      10.01107976       0.51433865       9.90443802  T       0.00000000       0.00000000       0.00000000
Pd       6.91608333       0.48170041       9.91746867  T       0.00000000       0.00000000       0.00000000
Pd       8.47897890       9.59993394       9.76096047  T       0.00000000       0.00000000       0.00000000
Pd       0.76036099       6.63910471       9.91793803  T       0.00000000       0.00000000       0.00000000
Pd       5.39975921       9.51114494       9.68673440  T       0.00000000       0.00000000       0.00000000
Pd      11.55223969       3.36246801       9.66608539  T       0.00000000       0.00000000       0.00000000
Pd       8.48377397       3.45270472       9.75559689  T       0.00000000       0.00000000       0.00000000
Pd      10.00208287       6.67640631       9.92283615  T       0.00000000       0.00000000       0.00000000
Pd       3.85696287       0.52444152       9.91751033  T       0.00000000       0.00000000       0.00000000
Pd       2.33929648       9.59851627       9.76146878  T       0.00000000       0.00000000       0.00000000
Pd       4.94094650      11.11218529       7.40598160  T       0.00000000       0.00000000       0.00000000
Pd      11.55491883       9.50721706       9.68774902  T       0.00000000       0.00000000       0.00000000
C        6.83096920       1.68518007      13.65297629  T       0.00000000       0.00000000       0.00000000
O        7.96857212       1.83378978      13.66806505  T       0.00000000       0.00000000       0.00000000
