114
Lattice="12.303473692417112 0.0 0.0 0.0 12.303473692417114 0.0 0.0 0.0 29.165420746594243" Properties=species:S:1:pos:R:3:move_mask:L:1:momenta:R:3 adsorbate_info="_JSON {\"site\": {\"coordinates\": [9.541334152978196, 8.921888813584957, 9.907510001036533], \"connectivity\": 3, \"topology\": [4, 102, 111], \"n_vector\": [0.11254692344491882, 0.34788694028794476, 0.9307566098611255], \"h_vector\": [0.01329248320489807, 0.9283399867669688, -0.3714945206322046], \"site_formula\": {\"O\": 1, \"Pd\": 2}}, \"smiles\": \"Cl[C]=O\", \"mdf\": 2.603475348021471, \"adsorbate_formula\": \"CO\"}" mace_E=-574.4518033178629 converged=T n_steps=38 d_min=2.014262627738805 site_type=bridge dE_rel_meV=0 original_idx=131 rank=4 E_MACE=-575.2698606417124 pbc="T T T"
O        8.47349993      11.57742894       9.35693111  T       0.00000000       0.00000000       0.00000000
O       11.50570579       5.37188520       9.37481814  T       0.00000000       0.00000000       0.00000000
O       11.54863380       1.62779971      10.57799858  T       0.00000000       0.00000000       0.00000000
O       11.49883998      11.53549431       9.37714779  T       0.00000000       0.00000000       0.00000000
O        8.44792961       7.81540420      10.54891915  T       0.00000000       0.00000000       0.00000000
O        5.35074751      11.53041806       9.37680765  T       0.00000000       0.00000000       0.00000000
O        5.40213247       7.77896715      10.56818221  T       0.00000000       0.00000000       0.00000000
O        8.47866829       5.42590120       9.36375919  T       0.00000000       0.00000000       0.00000000
O       11.56965083       7.78102190      10.54574790  T       0.00000000       0.00000000       0.00000000
O        2.33500962       5.41619651       9.34373514  T       0.00000000       0.00000000       0.00000000
O        2.28906462       1.65791308      10.55080950  T       0.00000000       0.00000000       0.00000000
O        2.32065291      11.58387573       9.35161542  T       0.00000000       0.00000000       0.00000000
O        5.36052670       5.37288068       9.37982281  T       0.00000000       0.00000000       0.00000000
O        5.40052856       1.62433906      10.57874157  T       0.00000000       0.00000000       0.00000000
O        2.29842027       7.80982862      10.51826882  T       0.00000000       0.00000000       0.00000000
O        8.43660510       1.65829581      10.54647623  T       0.00000000       0.00000000       0.00000000
Pd       5.53656316       9.22760527       1.50000000  F       0.00000000       0.00000000       0.00000000
Pd       6.11368063       7.45410079       7.39713974  T       0.00000000       0.00000000       0.00000000
Pd       4.28815433       6.78245218       5.40241719  F       0.00000000       0.00000000       0.00000000
Pd       6.15173685       7.38208422       3.44535000  F       0.00000000       0.00000000       0.00000000
Pd       7.34023461       3.64925597       7.35426399  T       0.00000000       0.00000000       0.00000000
Pd       5.51948843       3.08419342       5.37702261  F       0.00000000       0.00000000       0.00000000
Pd       6.76691053       5.53656316       1.50000000  F       0.00000000       0.00000000       0.00000000
Pd       7.38208422       9.84277895       3.44535000  F       0.00000000       0.00000000       0.00000000
Pd       7.99725790       7.99725790       1.50000000  F       0.00000000       0.00000000       0.00000000
Pd       5.51951598       9.23590192       5.37700272  F       0.00000000       0.00000000       0.00000000
Pd       8.00616182       7.98477587       5.40628129  F       0.00000000       0.00000000       0.00000000
Pd       6.76691053      11.68830001       1.50000000  F       0.00000000       0.00000000       0.00000000
Pd       8.61243158       0.00000000       3.44535000  F       0.00000000       0.00000000       0.00000000
Pd       6.75606179      11.70364973       5.37992114  F       0.00000000       0.00000000       0.00000000
Pd       8.55672712      -0.01623283       7.40806813  T       0.00000000       0.00000000       0.00000000
Pd       9.84277895       8.61243158       3.44535000  F       0.00000000       0.00000000       0.00000000
Pd       7.38208422       3.69104211       3.44535000  F       0.00000000       0.00000000       0.00000000
Pd       3.69104211       8.61243158       3.44535000  F       0.00000000       0.00000000       0.00000000
Pd       9.82247580       8.61334683       7.50209626  T       0.00000000       0.00000000       0.00000000
Pd       9.22760527      10.45795264       1.50000000  F       0.00000000       0.00000000       0.00000000
Pd       7.33609317       9.79867398       7.35324963  T       0.00000000       0.00000000       0.00000000
Pd       1.84552105       7.99725790       1.50000000  F       0.00000000       0.00000000       0.00000000
Pd      11.68830001       9.22760527       1.50000000  F       0.00000000       0.00000000       0.00000000
Pd       0.60431863      11.70356305       5.37989931  F       0.00000000       0.00000000       0.00000000
Pd       8.61243158       6.15173685       3.44535000  F       0.00000000       0.00000000       0.00000000
Pd       6.75605293       5.55187564       5.37990856  F       0.00000000       0.00000000       0.00000000
Pd       8.56095121       6.13479304       7.41257949  T       0.00000000       0.00000000       0.00000000
Pd       7.99725790       1.84552105       1.50000000  F       0.00000000       0.00000000       0.00000000
Pd       9.84277895       2.46069474       3.44535000  F       0.00000000       0.00000000       0.00000000
Pd       8.00617313       1.83308050       5.40627808  F       0.00000000       0.00000000       0.00000000
Pd       9.82221265       2.45796338       7.50235806  T       0.00000000       0.00000000       0.00000000
Pd       9.22760527       4.30621579       1.50000000  F       0.00000000       0.00000000       0.00000000
Pd       4.92138948       4.92138948       3.44535000  F       0.00000000       0.00000000       0.00000000
Pd       9.22722207       4.29761474       5.41287912  F       0.00000000       0.00000000       0.00000000
Pd       4.93928751       4.95564225       7.40006613  T       0.00000000       0.00000000       0.00000000
Pd      10.45795264       6.76691053       1.50000000  F       0.00000000       0.00000000       0.00000000
Pd       0.00000000       7.38208422       3.44535000  F       0.00000000       0.00000000       0.00000000
Pd      10.43991375       6.78245558       5.40242713  F       0.00000000       0.00000000       0.00000000
Pd      12.26168227       7.45364786       7.39149598  T       0.00000000       0.00000000       0.00000000
Pd       4.92138948      11.07312632       3.44535000  F       0.00000000       0.00000000       0.00000000
Pd       1.23034737       9.84277895       3.44535000  F       0.00000000       0.00000000       0.00000000
Pd      11.67120661       9.23591801       5.37701028  F       0.00000000       0.00000000       0.00000000
Pd       1.18052914       9.80296993       7.34859406  T       0.00000000       0.00000000       0.00000000
Pd       0.61517368      11.68830001       1.50000000  F       0.00000000       0.00000000       0.00000000
Pd       2.46069474       0.00000000       3.44535000  F       0.00000000       0.00000000       0.00000000
Pd       2.41017429      -0.00866586       7.40490051  T       0.00000000       0.00000000       0.00000000
Pd       9.22719689      10.44932842       5.41286416  F       0.00000000       0.00000000       0.00000000
Pd       3.67447419       8.61601303       7.49598842  T       0.00000000       0.00000000       0.00000000
Pd       4.30621579       0.61517368       1.50000000  F       0.00000000       0.00000000       0.00000000
Pd      11.07312632       4.92138948       3.44535000  F       0.00000000       0.00000000       0.00000000
Pd       4.30621579       6.76691053       1.50000000  F       0.00000000       0.00000000       0.00000000
Pd       3.67599164       2.46459569       7.50364874  T       0.00000000       0.00000000       0.00000000
Pd       2.41326938       6.13747208       7.40063765  T       0.00000000       0.00000000       0.00000000
Pd       0.60433818       5.55187436       5.37993065  F       0.00000000       0.00000000       0.00000000
Pd       2.46069474       6.15173685       3.44535000  F       0.00000000       0.00000000       0.00000000
Pd       0.61517368       5.53656316       1.50000000  F       0.00000000       0.00000000       0.00000000
Pd       1.18347270       3.64632699       7.35366874  T       0.00000000       0.00000000       0.00000000
Pd      11.67123156       3.08419612       5.37703229  F       0.00000000       0.00000000       0.00000000
Pd       6.91908039       6.63743658       9.91771055  T       0.00000000       0.00000000       0.00000000
Pd       1.23034737       3.69104211       3.44535000  F       0.00000000       0.00000000       0.00000000
Pd      12.26348632       1.30271083       7.39755691  T       0.00000000       0.00000000       0.00000000
Pd      10.43990395       0.63072067       5.40242717  F       0.00000000       0.00000000       0.00000000
Pd       0.00000000       1.23034737       3.44535000  F       0.00000000       0.00000000       0.00000000
Pd       1.84552105       1.84552105       1.50000000  F       0.00000000       0.00000000       0.00000000
Pd      10.45795264       0.61517368       1.50000000  F       0.00000000       0.00000000       0.00000000
Pd      11.08105777      11.11224527       7.39906400  T       0.00000000       0.00000000       0.00000000
Pd       3.07550809      10.44932540       5.41290581  F       0.00000000       0.00000000       0.00000000
Pd       3.69104211       2.46069474       3.44535000  F       0.00000000       0.00000000       0.00000000
Pd       1.85442396       1.83305046       5.40626716  F       0.00000000       0.00000000       0.00000000
Pd      11.68830001       3.07586842       1.50000000  F       0.00000000       0.00000000       0.00000000
Pd       0.75814754       0.48831045       9.91627518  T       0.00000000       0.00000000       0.00000000
Pd       2.33666802       3.44151440       9.76207829  T       0.00000000       0.00000000       0.00000000
Pd       3.86036508       6.67074446       9.90602683  T       0.00000000       0.00000000       0.00000000
Pd       6.15173685       1.23034737       3.44535000  F       0.00000000       0.00000000       0.00000000
Pd       4.28818081       0.63072761       5.40241929  F       0.00000000       0.00000000       0.00000000
Pd       6.11368125       1.30598752       7.39729227  T       0.00000000       0.00000000       0.00000000
Pd       5.53656316       3.07586842       1.50000000  F       0.00000000       0.00000000       0.00000000
Pd       1.85444455       7.98478761       5.40627529  F       0.00000000       0.00000000       0.00000000
Pd       5.40666648       3.36195061       9.68792701  T       0.00000000       0.00000000       0.00000000
Pd       3.07586842      10.45795264       1.50000000  F       0.00000000       0.00000000       0.00000000
Pd       3.07586842       4.30621579       1.50000000  F       0.00000000       0.00000000       0.00000000
Pd       3.07547731       4.29761827       5.41291946  F       0.00000000       0.00000000       0.00000000
Pd      11.08327159       4.95379125       7.39988190  T       0.00000000       0.00000000       0.00000000
Pd      11.07312632      11.07312632       3.44535000  F       0.00000000       0.00000000       0.00000000
Pd      10.00025207       0.52433198       9.92056002  T       0.00000000       0.00000000       0.00000000
Pd       6.91032548       0.48365217       9.91510454  T       0.00000000       0.00000000       0.00000000
Pd       8.48355680       9.59986925       9.76537357  T       0.00000000       0.00000000       0.00000000
Pd       0.77090412       6.62902042       9.89771425  T       0.00000000       0.00000000       0.00000000
Pd       5.40302575       9.51384568       9.67092732  T       0.00000000       0.00000000       0.00000000
Pd      11.54750263       3.36187747       9.68151381  T       0.00000000       0.00000000       0.00000000
Pd       8.47967621       3.44739387       9.76895248  T       0.00000000       0.00000000       0.00000000
Pd      10.01076227       6.67300750       9.92126216  T       0.00000000       0.00000000       0.00000000
Pd       3.85100391       0.52262936       9.92206750  T       0.00000000       0.00000000       0.00000000
Pd       2.33185805       9.60311398       9.75055192  T       0.00000000       0.00000000       0.00000000
Pd       4.93450619      11.11263640       7.39828466  T       0.00000000       0.00000000       0.00000000
Pd      11.55313904       9.52112166       9.67059413  T       0.00000000       0.00000000       0.00000000
C        9.80035357       7.95494999      13.64608601  T       0.00000000       0.00000000       0.00000000
O       10.94594465       7.90788674      13.68037485  T       0.00000000       0.00000000       0.00000000
