114
Lattice="12.303473692417112 0.0 0.0 0.0 12.303473692417114 0.0 0.0 0.0 29.165420746594243" Properties=species:S:1:pos:R:3:move_mask:L:1:momenta:R:3 adsorbate_info="_JSON {\"site\": {\"coordinates\": [11.577753359431453, 10.477038890347576, 9.456839454784681], \"connectivity\": 2, \"topology\": [3, 111], \"n_vector\": [0.012968556518308269, 0.04479468431752852, 0.9989120345649684], \"h_vector\": [0.011415076904135287, -0.9880484164191948, 0.15372059989082135], \"site_formula\": {\"O\": 1, \"Pd\": 1}}, \"smiles\": \"Cl[C]=O\", \"mdf\": 1.8183128001923243, \"adsorbate_formula\": \"CO\"}" mace_E=-574.5247687413438 converged=T n_steps=39 d_min=2.01195657752322 site_type=atop dE_rel_meV=0 original_idx=160 rank=8 E_MACE=-575.2691899856677 pbc="T T T"
O        8.48624128      11.58922373       9.35303305  T       0.00000000       0.00000000       0.00000000
O       11.51211806       5.38258329       9.37930586  T       0.00000000       0.00000000       0.00000000
O       11.56446363       1.64207213      10.56719316  T       0.00000000       0.00000000       0.00000000
O       11.50864948      11.53103442       9.38087422  T       0.00000000       0.00000000       0.00000000
O        8.45301068       7.82459779      10.53856136  T       0.00000000       0.00000000       0.00000000
O        5.36423168      11.53627665       9.37774537  T       0.00000000       0.00000000       0.00000000
O        5.40746085       7.78937465      10.57900550  T       0.00000000       0.00000000       0.00000000
O        8.47671265       5.43799528       9.35101162  T       0.00000000       0.00000000       0.00000000
O       11.55813851       7.77892297      10.58312068  T       0.00000000       0.00000000       0.00000000
O        2.33292752       5.43638993       9.35329230  T       0.00000000       0.00000000       0.00000000
O        2.30171103       1.66638541      10.53482112  T       0.00000000       0.00000000       0.00000000
O        2.32921040      11.57976206       9.34850975  T       0.00000000       0.00000000       0.00000000
O        5.36096993       5.39142901       9.38108562  T       0.00000000       0.00000000       0.00000000
O        5.40674170       1.63641217      10.56664188  T       0.00000000       0.00000000       0.00000000
O        2.29731353       7.82026114      10.54018436  T       0.00000000       0.00000000       0.00000000
O        8.45351850       1.67219214      10.54039480  T       0.00000000       0.00000000       0.00000000
Pd       5.53656316       9.22760527       1.50000000  F       0.00000000       0.00000000       0.00000000
Pd       6.11578027       7.45714579       7.39552901  T       0.00000000       0.00000000       0.00000000
Pd       4.28815433       6.78245218       5.40241719  F       0.00000000       0.00000000       0.00000000
Pd       6.15173685       7.38208422       3.44535000  F       0.00000000       0.00000000       0.00000000
Pd       7.33717371       3.65427841       7.35326581  T       0.00000000       0.00000000       0.00000000
Pd       5.51948843       3.08419342       5.37702261  F       0.00000000       0.00000000       0.00000000
Pd       6.76691053       5.53656316       1.50000000  F       0.00000000       0.00000000       0.00000000
Pd       7.38208422       9.84277895       3.44535000  F       0.00000000       0.00000000       0.00000000
Pd       7.99725790       7.99725790       1.50000000  F       0.00000000       0.00000000       0.00000000
Pd       5.51951598       9.23590192       5.37700272  F       0.00000000       0.00000000       0.00000000
Pd       8.00616182       7.98477587       5.40628129  F       0.00000000       0.00000000       0.00000000
Pd       6.76691053      11.68830001       1.50000000  F       0.00000000       0.00000000       0.00000000
Pd       8.61243158       0.00000000       3.44535000  F       0.00000000       0.00000000       0.00000000
Pd       6.75606179      11.70364973       5.37992114  F       0.00000000       0.00000000       0.00000000
Pd       8.56313235      -0.01145884       7.40398289  T       0.00000000       0.00000000       0.00000000
Pd       9.84277895       8.61243158       3.44535000  F       0.00000000       0.00000000       0.00000000
Pd       7.38208422       3.69104211       3.44535000  F       0.00000000       0.00000000       0.00000000
Pd       3.69104211       8.61243158       3.44535000  F       0.00000000       0.00000000       0.00000000
Pd       9.82665036       8.61993271       7.49900446  T       0.00000000       0.00000000       0.00000000
Pd       9.22760527      10.45795264       1.50000000  F       0.00000000       0.00000000       0.00000000
Pd       7.33806255       9.80369447       7.35394603  T       0.00000000       0.00000000       0.00000000
Pd       1.84552105       7.99725790       1.50000000  F       0.00000000       0.00000000       0.00000000
Pd      11.68830001       9.22760527       1.50000000  F       0.00000000       0.00000000       0.00000000
Pd       0.60431863      11.70356305       5.37989931  F       0.00000000       0.00000000       0.00000000
Pd       8.61243158       6.15173685       3.44535000  F       0.00000000       0.00000000       0.00000000
Pd       6.75605293       5.55187564       5.37990856  F       0.00000000       0.00000000       0.00000000
Pd       8.56345353       6.14269535       7.40501492  T       0.00000000       0.00000000       0.00000000
Pd       7.99725790       1.84552105       1.50000000  F       0.00000000       0.00000000       0.00000000
Pd       9.84277895       2.46069474       3.44535000  F       0.00000000       0.00000000       0.00000000
Pd       8.00617313       1.83308050       5.40627808  F       0.00000000       0.00000000       0.00000000
Pd       9.82078781       2.46633058       7.50243397  T       0.00000000       0.00000000       0.00000000
Pd       9.22760527       4.30621579       1.50000000  F       0.00000000       0.00000000       0.00000000
Pd       4.92138948       4.92138948       3.44535000  F       0.00000000       0.00000000       0.00000000
Pd       9.22722207       4.29761474       5.41287912  F       0.00000000       0.00000000       0.00000000
Pd       4.93649702       4.96498576       7.40130922  T       0.00000000       0.00000000       0.00000000
Pd      10.45795264       6.76691053       1.50000000  F       0.00000000       0.00000000       0.00000000
Pd       0.00000000       7.38208422       3.44535000  F       0.00000000       0.00000000       0.00000000
Pd      10.43991375       6.78245558       5.40242713  F       0.00000000       0.00000000       0.00000000
Pd      12.26451337       7.45290996       7.39484317  T       0.00000000       0.00000000       0.00000000
Pd       4.92138948      11.07312632       3.44535000  F       0.00000000       0.00000000       0.00000000
Pd       1.23034737       9.84277895       3.44535000  F       0.00000000       0.00000000       0.00000000
Pd      11.67120661       9.23591801       5.37701028  F       0.00000000       0.00000000       0.00000000
Pd       1.18346224       9.79978390       7.35225014  T       0.00000000       0.00000000       0.00000000
Pd       0.61517368      11.68830001       1.50000000  F       0.00000000       0.00000000       0.00000000
Pd       2.46069474       0.00000000       3.44535000  F       0.00000000       0.00000000       0.00000000
Pd       2.40918034      -0.01189716       7.40449784  T       0.00000000       0.00000000       0.00000000
Pd       9.22719689      10.44932842       5.41286416  F       0.00000000       0.00000000       0.00000000
Pd       3.67515047       8.61444912       7.50268357  T       0.00000000       0.00000000       0.00000000
Pd       4.30621579       0.61517368       1.50000000  F       0.00000000       0.00000000       0.00000000
Pd      11.07312632       4.92138948       3.44535000  F       0.00000000       0.00000000       0.00000000
Pd       4.30621579       6.76691053       1.50000000  F       0.00000000       0.00000000       0.00000000
Pd       3.67617486       2.46630851       7.49720314  T       0.00000000       0.00000000       0.00000000
Pd       2.41159396       6.14220218       7.40775198  T       0.00000000       0.00000000       0.00000000
Pd       0.60433818       5.55187436       5.37993065  F       0.00000000       0.00000000       0.00000000
Pd       2.46069474       6.15173685       3.44535000  F       0.00000000       0.00000000       0.00000000
Pd       0.61517368       5.53656316       1.50000000  F       0.00000000       0.00000000       0.00000000
Pd       1.18873895       3.65215985       7.35324463  T       0.00000000       0.00000000       0.00000000
Pd      11.67123156       3.08419612       5.37703229  F       0.00000000       0.00000000       0.00000000
Pd       6.92207371       6.65004117       9.91646815  T       0.00000000       0.00000000       0.00000000
Pd       1.23034737       3.69104211       3.44535000  F       0.00000000       0.00000000       0.00000000
Pd      12.26498736       1.30463892       7.39052978  T       0.00000000       0.00000000       0.00000000
Pd      10.43990395       0.63072067       5.40242717  F       0.00000000       0.00000000       0.00000000
Pd       0.00000000       1.23034737       3.44535000  F       0.00000000       0.00000000       0.00000000
Pd       1.84552105       1.84552105       1.50000000  F       0.00000000       0.00000000       0.00000000
Pd      10.45795264       0.61517368       1.50000000  F       0.00000000       0.00000000       0.00000000
Pd      11.08737290      11.11570159       7.40126742  T       0.00000000       0.00000000       0.00000000
Pd       3.07550809      10.44932540       5.41290581  F       0.00000000       0.00000000       0.00000000
Pd       3.69104211       2.46069474       3.44535000  F       0.00000000       0.00000000       0.00000000
Pd       1.85442396       1.83305046       5.40626716  F       0.00000000       0.00000000       0.00000000
Pd      11.68830001       3.07586842       1.50000000  F       0.00000000       0.00000000       0.00000000
Pd       0.76986394       0.49060914       9.91304986  T       0.00000000       0.00000000       0.00000000
Pd       2.34104747       3.45490520       9.75906928  T       0.00000000       0.00000000       0.00000000
Pd       3.86064476       6.68574249       9.91877252  T       0.00000000       0.00000000       0.00000000
Pd       6.15173685       1.23034737       3.44535000  F       0.00000000       0.00000000       0.00000000
Pd       4.28818081       0.63072761       5.40241929  F       0.00000000       0.00000000       0.00000000
Pd       6.11623443       1.30336670       7.39550694  T       0.00000000       0.00000000       0.00000000
Pd       5.53656316       3.07586842       1.50000000  F       0.00000000       0.00000000       0.00000000
Pd       1.85444455       7.98478761       5.40627529  F       0.00000000       0.00000000       0.00000000
Pd       5.40466019       3.37166041       9.67046381  T       0.00000000       0.00000000       0.00000000
Pd       3.07586842      10.45795264       1.50000000  F       0.00000000       0.00000000       0.00000000
Pd       3.07586842       4.30621579       1.50000000  F       0.00000000       0.00000000       0.00000000
Pd       3.07547731       4.29761827       5.41291946  F       0.00000000       0.00000000       0.00000000
Pd      11.08521912       4.95779804       7.39983401  T       0.00000000       0.00000000       0.00000000
Pd      11.07312632      11.07312632       3.44535000  F       0.00000000       0.00000000       0.00000000
Pd      10.01604957       0.53376360       9.91770503  T       0.00000000       0.00000000       0.00000000
Pd       6.92284163       0.49569709       9.91207185  T       0.00000000       0.00000000       0.00000000
Pd       8.49839010       9.61091279       9.75932787  T       0.00000000       0.00000000       0.00000000
Pd       0.76966518       6.64411894       9.91667042  T       0.00000000       0.00000000       0.00000000
Pd       5.40996608       9.52192540       9.68196967  T       0.00000000       0.00000000       0.00000000
Pd      11.56387739       3.37176806       9.67487502  T       0.00000000       0.00000000       0.00000000
Pd       8.49036495       3.45870291       9.76031145  T       0.00000000       0.00000000       0.00000000
Pd      10.01134890       6.68081634       9.91743051  T       0.00000000       0.00000000       0.00000000
Pd       3.86206930       0.52784310       9.91205923  T       0.00000000       0.00000000       0.00000000
Pd       2.33812115       9.60404409       9.75655921  T       0.00000000       0.00000000       0.00000000
Pd       4.93390102      11.10928575       7.39956807  T       0.00000000       0.00000000       0.00000000
Pd      11.55555635       9.51400211       9.68341149  T       0.00000000       0.00000000       0.00000000
C       11.84903375      11.65476845      12.90538184  T       0.00000000       0.00000000       0.00000000
O       11.05278879      12.33268609      13.37886030  T       0.00000000       0.00000000       0.00000000
