114
Lattice="12.303473692417112 0.0 0.0 0.0 12.303473692417114 0.0 0.0 0.0 29.165420746594243" Properties=species:S:1:pos:R:3:move_mask:L:1:momenta:R:3 adsorbate_info="_JSON {\"site\": {\"coordinates\": [8.504496832648341, 1.5846383978370908, 10.417066456623605], \"connectivity\": 1, \"topology\": [15], \"n_vector\": [0.00011323045870083143, -0.018646781548337498, 0.999826127242508], \"h_vector\": [1.0, 0.0, 0.0], \"site_formula\": {\"O\": 1}}, \"smiles\": \"Cl[C]=O\", \"mdf\": 2.5603712555947475, \"adsorbate_formula\": \"CO\"}" mace_E=-574.4873023519136 converged=T n_steps=41 d_min=3.1985919048232647 site_type=hollow dE_rel_meV=0 original_idx=109 rank=165 E_MACE=-574.4518033178629 pbc="T T T"
O        8.46319082      11.59027007       9.35288487  T       0.00000000       0.00000000       0.00000000
O       11.49240403       5.38806199       9.38195642  T       0.00000000       0.00000000       0.00000000
O       11.54181120       1.63657450      10.57048678  T       0.00000000       0.00000000       0.00000000
O       11.49660867      11.53786120       9.38043787  T       0.00000000       0.00000000       0.00000000
O        8.43159088       7.82348749      10.53836111  T       0.00000000       0.00000000       0.00000000
O        5.34270866      11.54173799       9.38499894  T       0.00000000       0.00000000       0.00000000
O        5.38800027       7.78910277      10.57591538  T       0.00000000       0.00000000       0.00000000
O        8.46195537       5.43676874       9.35319992  T       0.00000000       0.00000000       0.00000000
O       11.53868802       7.78716580      10.57741026  T       0.00000000       0.00000000       0.00000000
O        2.31147216       5.43750361       9.35163212  T       0.00000000       0.00000000       0.00000000
O        2.28120124       1.67297957      10.53992193  T       0.00000000       0.00000000       0.00000000
O        2.31489399      11.58933832       9.35366644  T       0.00000000       0.00000000       0.00000000
O        5.34249058       5.39021024       9.37976244  T       0.00000000       0.00000000       0.00000000
O        5.38782167       1.64145726      10.57681808  T       0.00000000       0.00000000       0.00000000
O        2.28126741       7.82313775      10.53605576  T       0.00000000       0.00000000       0.00000000
O        8.43809981       1.67067741      10.54392589  T       0.00000000       0.00000000       0.00000000
Pd       5.53656316       9.22760527       1.50000000  F       0.00000000       0.00000000       0.00000000
Pd       6.11016591       7.45476804       7.39335429  T       0.00000000       0.00000000       0.00000000
Pd       4.28815433       6.78245218       5.40241719  F       0.00000000       0.00000000       0.00000000
Pd       6.15173685       7.38208422       3.44535000  F       0.00000000       0.00000000       0.00000000
Pd       7.33514413       3.65213136       7.35306987  T       0.00000000       0.00000000       0.00000000
Pd       5.51948843       3.08419342       5.37702261  F       0.00000000       0.00000000       0.00000000
Pd       6.76691053       5.53656316       1.50000000  F       0.00000000       0.00000000       0.00000000
Pd       7.38208422       9.84277895       3.44535000  F       0.00000000       0.00000000       0.00000000
Pd       7.99725790       7.99725790       1.50000000  F       0.00000000       0.00000000       0.00000000
Pd       5.51951598       9.23590192       5.37700272  F       0.00000000       0.00000000       0.00000000
Pd       8.00616182       7.98477587       5.40628129  F       0.00000000       0.00000000       0.00000000
Pd       6.76691053      11.68830001       1.50000000  F       0.00000000       0.00000000       0.00000000
Pd       8.61243158       0.00000000       3.44535000  F       0.00000000       0.00000000       0.00000000
Pd       6.75606179      11.70364973       5.37992114  F       0.00000000       0.00000000       0.00000000
Pd       8.55953221      -0.01293748       7.40589348  T       0.00000000       0.00000000       0.00000000
Pd       9.84277895       8.61243158       3.44535000  F       0.00000000       0.00000000       0.00000000
Pd       7.38208422       3.69104211       3.44535000  F       0.00000000       0.00000000       0.00000000
Pd       3.69104211       8.61243158       3.44535000  F       0.00000000       0.00000000       0.00000000
Pd       9.82108408       8.61716263       7.50499338  T       0.00000000       0.00000000       0.00000000
Pd       9.22760527      10.45795264       1.50000000  F       0.00000000       0.00000000       0.00000000
Pd       7.33399477       9.80191126       7.35229817  T       0.00000000       0.00000000       0.00000000
Pd       1.84552105       7.99725790       1.50000000  F       0.00000000       0.00000000       0.00000000
Pd      11.68830001       9.22760527       1.50000000  F       0.00000000       0.00000000       0.00000000
Pd       0.60431863      11.70356305       5.37989931  F       0.00000000       0.00000000       0.00000000
Pd       8.61243158       6.15173685       3.44535000  F       0.00000000       0.00000000       0.00000000
Pd       6.75605293       5.55187564       5.37990856  F       0.00000000       0.00000000       0.00000000
Pd       8.55888182       6.14123103       7.40613262  T       0.00000000       0.00000000       0.00000000
Pd       7.99725790       1.84552105       1.50000000  F       0.00000000       0.00000000       0.00000000
Pd       9.84277895       2.46069474       3.44535000  F       0.00000000       0.00000000       0.00000000
Pd       8.00617313       1.83308050       5.40627808  F       0.00000000       0.00000000       0.00000000
Pd       9.82036157       2.46571650       7.50176881  T       0.00000000       0.00000000       0.00000000
Pd       9.22760527       4.30621579       1.50000000  F       0.00000000       0.00000000       0.00000000
Pd       4.92138948       4.92138948       3.44535000  F       0.00000000       0.00000000       0.00000000
Pd       9.22722207       4.29761474       5.41287912  F       0.00000000       0.00000000       0.00000000
Pd       4.93077190       4.95920320       7.39945873  T       0.00000000       0.00000000       0.00000000
Pd      10.45795264       6.76691053       1.50000000  F       0.00000000       0.00000000       0.00000000
Pd       0.00000000       7.38208422       3.44535000  F       0.00000000       0.00000000       0.00000000
Pd      10.43991375       6.78245558       5.40242713  F       0.00000000       0.00000000       0.00000000
Pd      12.26383357       7.45604347       7.39366425  T       0.00000000       0.00000000       0.00000000
Pd       4.92138948      11.07312632       3.44535000  F       0.00000000       0.00000000       0.00000000
Pd       1.23034737       9.84277895       3.44535000  F       0.00000000       0.00000000       0.00000000
Pd      11.67120661       9.23591801       5.37701028  F       0.00000000       0.00000000       0.00000000
Pd       1.18253541       9.80427015       7.35183315  T       0.00000000       0.00000000       0.00000000
Pd       0.61517368      11.68830001       1.50000000  F       0.00000000       0.00000000       0.00000000
Pd       2.46069474       0.00000000       3.44535000  F       0.00000000       0.00000000       0.00000000
Pd       2.40971014      -0.01120310       7.40510955  T       0.00000000       0.00000000       0.00000000
Pd       9.22719689      10.44932842       5.41286416  F       0.00000000       0.00000000       0.00000000
Pd       3.67005935       8.62088894       7.50236789  T       0.00000000       0.00000000       0.00000000
Pd       4.30621579       0.61517368       1.50000000  F       0.00000000       0.00000000       0.00000000
Pd      11.07312632       4.92138948       3.44535000  F       0.00000000       0.00000000       0.00000000
Pd       4.30621579       6.76691053       1.50000000  F       0.00000000       0.00000000       0.00000000
Pd       3.66899333       2.46655980       7.50415052  T       0.00000000       0.00000000       0.00000000
Pd       2.40852661       6.14140496       7.40437585  T       0.00000000       0.00000000       0.00000000
Pd       0.60433818       5.55187436       5.37993065  F       0.00000000       0.00000000       0.00000000
Pd       2.46069474       6.15173685       3.44535000  F       0.00000000       0.00000000       0.00000000
Pd       0.61517368       5.53656316       1.50000000  F       0.00000000       0.00000000       0.00000000
Pd       1.18200236       3.65149004       7.35167003  T       0.00000000       0.00000000       0.00000000
Pd      11.67123156       3.08419612       5.37703229  F       0.00000000       0.00000000       0.00000000
Pd       6.90274720       6.64855115       9.91458549  T       0.00000000       0.00000000       0.00000000
Pd       1.23034737       3.69104211       3.44535000  F       0.00000000       0.00000000       0.00000000
Pd      12.26251782       1.30195896       7.39294431  T       0.00000000       0.00000000       0.00000000
Pd      10.43990395       0.63072067       5.40242717  F       0.00000000       0.00000000       0.00000000
Pd       0.00000000       1.23034737       3.44535000  F       0.00000000       0.00000000       0.00000000
Pd       1.84552105       1.84552105       1.50000000  F       0.00000000       0.00000000       0.00000000
Pd      10.45795264       0.61517368       1.50000000  F       0.00000000       0.00000000       0.00000000
Pd      11.08158373      11.11035504       7.39944113  T       0.00000000       0.00000000       0.00000000
Pd       3.07550809      10.44932540       5.41290581  F       0.00000000       0.00000000       0.00000000
Pd       3.69104211       2.46069474       3.44535000  F       0.00000000       0.00000000       0.00000000
Pd       1.85442396       1.83305046       5.40626716  F       0.00000000       0.00000000       0.00000000
Pd      11.68830001       3.07586842       1.50000000  F       0.00000000       0.00000000       0.00000000
Pd       0.75471413       0.49647586       9.91402409  T       0.00000000       0.00000000       0.00000000
Pd       2.32319605       3.45904086       9.76079330  T       0.00000000       0.00000000       0.00000000
Pd       3.84134154       6.68624053       9.91451598  T       0.00000000       0.00000000       0.00000000
Pd       6.15173685       1.23034737       3.44535000  F       0.00000000       0.00000000       0.00000000
Pd       4.28818081       0.63072761       5.40241929  F       0.00000000       0.00000000       0.00000000
Pd       6.11197127       1.30425031       7.39236013  T       0.00000000       0.00000000       0.00000000
Pd       5.53656316       3.07586842       1.50000000  F       0.00000000       0.00000000       0.00000000
Pd       1.85444455       7.98478761       5.40627529  F       0.00000000       0.00000000       0.00000000
Pd       5.38967499       3.37518839       9.68547230  T       0.00000000       0.00000000       0.00000000
Pd       3.07586842      10.45795264       1.50000000  F       0.00000000       0.00000000       0.00000000
Pd       3.07586842       4.30621579       1.50000000  F       0.00000000       0.00000000       0.00000000
Pd       3.07547731       4.29761827       5.41291946  F       0.00000000       0.00000000       0.00000000
Pd      11.08146314       4.96202874       7.39938886  T       0.00000000       0.00000000       0.00000000
Pd      11.07312632      11.07312632       3.44535000  F       0.00000000       0.00000000       0.00000000
Pd       9.99586341       0.53037488       9.91701764  T       0.00000000       0.00000000       0.00000000
Pd       6.90515217       0.49663515       9.92055263  T       0.00000000       0.00000000       0.00000000
Pd       8.47162501       9.61121387       9.76167738  T       0.00000000       0.00000000       0.00000000
Pd       0.75075913       6.64815500       9.91394545  T       0.00000000       0.00000000       0.00000000
Pd       5.38782694       9.52701955       9.68728938  T       0.00000000       0.00000000       0.00000000
Pd      11.53863725       3.37115832       9.67656766  T       0.00000000       0.00000000       0.00000000
Pd       8.47364544       3.45692836       9.76370653  T       0.00000000       0.00000000       0.00000000
Pd       9.99198114       6.68508487       9.91695220  T       0.00000000       0.00000000       0.00000000
Pd       3.84261467       0.53364719       9.92125991  T       0.00000000       0.00000000       0.00000000
Pd       2.32327956       9.61014295       9.75925307  T       0.00000000       0.00000000       0.00000000
Pd       4.93381333      11.11499122       7.40239348  T       0.00000000       0.00000000       0.00000000
Pd      11.53978575       9.52300534       9.68470393  T       0.00000000       0.00000000       0.00000000
C        6.69990152       1.78143932      13.52842868  T       0.00000000       0.00000000       0.00000000
O        6.59434830       0.63883727      13.54292792  T       0.00000000       0.00000000       0.00000000
