114
Lattice="12.303473692417112 0.0 0.0 0.0 12.303473692417114 0.0 0.0 0.0 29.165420746594243" Properties=species:S:1:pos:R:3:move_mask:L:1:momenta:R:3 adsorbate_info="_JSON {\"site\": {\"coordinates\": [5.944102659773573, 0.37389771491139473, 9.845242165538291], \"connectivity\": 3, \"topology\": [5, 13, 101], \"n_vector\": [0.032207758369147126, -0.33674949817086614, 0.9410432698779075], \"h_vector\": [0.7623136575276551, -0.5820697734580519, -0.2829711405307985], \"site_formula\": {\"O\": 2, \"Pd\": 1}}, \"smiles\": \"Cl[C]=O\", \"mdf\": 2.1587051339062286, \"adsorbate_formula\": \"CO\"}" mace_E=-574.4837367518237 converged=T n_steps=40 d_min=3.27356611886085 site_type=atop dE_rel_meV=0 original_idx=75 rank=81 E_MACE=-574.5646956750408 pbc="T T T"
O        8.47205239      11.58285759       9.35271809  T       0.00000000       0.00000000       0.00000000
O       11.50158167       5.38334064       9.37918840  T       0.00000000       0.00000000       0.00000000
O       11.55293412       1.63199662      10.56398712  T       0.00000000       0.00000000       0.00000000
O       11.50864597      11.53583916       9.37731500  T       0.00000000       0.00000000       0.00000000
O        8.43688725       7.81837914      10.53613031  T       0.00000000       0.00000000       0.00000000
O        5.35385469      11.54237336       9.38586988  T       0.00000000       0.00000000       0.00000000
O        5.39406065       7.78473410      10.57507089  T       0.00000000       0.00000000       0.00000000
O        8.47212131       5.43052852       9.35457367  T       0.00000000       0.00000000       0.00000000
O       11.54685545       7.78745265      10.57299135  T       0.00000000       0.00000000       0.00000000
O        2.31571358       5.43298084       9.35233532  T       0.00000000       0.00000000       0.00000000
O        2.28968186       1.67193161      10.54565189  T       0.00000000       0.00000000       0.00000000
O        2.32999218      11.58923765       9.35405116  T       0.00000000       0.00000000       0.00000000
O        5.34846527       5.38852766       9.37144263  T       0.00000000       0.00000000       0.00000000
O        5.40732100       1.64586592      10.57411157  T       0.00000000       0.00000000       0.00000000
O        2.28824342       7.82252389      10.53170561  T       0.00000000       0.00000000       0.00000000
O        8.44879209       1.66808507      10.54143215  T       0.00000000       0.00000000       0.00000000
Pd       5.53656316       9.22760527       1.50000000  F       0.00000000       0.00000000       0.00000000
Pd       6.11257051       7.45375190       7.39292451  T       0.00000000       0.00000000       0.00000000
Pd       4.28815433       6.78245218       5.40241719  F       0.00000000       0.00000000       0.00000000
Pd       6.15173685       7.38208422       3.44535000  F       0.00000000       0.00000000       0.00000000
Pd       7.34031830       3.65204873       7.35149862  T       0.00000000       0.00000000       0.00000000
Pd       5.51948843       3.08419342       5.37702261  F       0.00000000       0.00000000       0.00000000
Pd       6.76691053       5.53656316       1.50000000  F       0.00000000       0.00000000       0.00000000
Pd       7.38208422       9.84277895       3.44535000  F       0.00000000       0.00000000       0.00000000
Pd       7.99725790       7.99725790       1.50000000  F       0.00000000       0.00000000       0.00000000
Pd       5.51951598       9.23590192       5.37700272  F       0.00000000       0.00000000       0.00000000
Pd       8.00616182       7.98477587       5.40628129  F       0.00000000       0.00000000       0.00000000
Pd       6.76691053      11.68830001       1.50000000  F       0.00000000       0.00000000       0.00000000
Pd       8.61243158       0.00000000       3.44535000  F       0.00000000       0.00000000       0.00000000
Pd       6.75606179      11.70364973       5.37992114  F       0.00000000       0.00000000       0.00000000
Pd       8.55838158      -0.01321576       7.40434164  T       0.00000000       0.00000000       0.00000000
Pd       9.84277895       8.61243158       3.44535000  F       0.00000000       0.00000000       0.00000000
Pd       7.38208422       3.69104211       3.44535000  F       0.00000000       0.00000000       0.00000000
Pd       3.69104211       8.61243158       3.44535000  F       0.00000000       0.00000000       0.00000000
Pd       9.82052615       8.61170426       7.50009496  T       0.00000000       0.00000000       0.00000000
Pd       9.22760527      10.45795264       1.50000000  F       0.00000000       0.00000000       0.00000000
Pd       7.33545034       9.80109255       7.35188911  T       0.00000000       0.00000000       0.00000000
Pd       1.84552105       7.99725790       1.50000000  F       0.00000000       0.00000000       0.00000000
Pd      11.68830001       9.22760527       1.50000000  F       0.00000000       0.00000000       0.00000000
Pd       0.60431863      11.70356305       5.37989931  F       0.00000000       0.00000000       0.00000000
Pd       8.61243158       6.15173685       3.44535000  F       0.00000000       0.00000000       0.00000000
Pd       6.75605293       5.55187564       5.37990856  F       0.00000000       0.00000000       0.00000000
Pd       8.56182099       6.13627621       7.40660564  T       0.00000000       0.00000000       0.00000000
Pd       7.99725790       1.84552105       1.50000000  F       0.00000000       0.00000000       0.00000000
Pd       9.84277895       2.46069474       3.44535000  F       0.00000000       0.00000000       0.00000000
Pd       8.00617313       1.83308050       5.40627808  F       0.00000000       0.00000000       0.00000000
Pd       9.82348518       2.46295411       7.49822543  T       0.00000000       0.00000000       0.00000000
Pd       9.22760527       4.30621579       1.50000000  F       0.00000000       0.00000000       0.00000000
Pd       4.92138948       4.92138948       3.44535000  F       0.00000000       0.00000000       0.00000000
Pd       9.22722207       4.29761474       5.41287912  F       0.00000000       0.00000000       0.00000000
Pd       4.93109904       4.95666710       7.39562393  T       0.00000000       0.00000000       0.00000000
Pd      10.45795264       6.76691053       1.50000000  F       0.00000000       0.00000000       0.00000000
Pd       0.00000000       7.38208422       3.44535000  F       0.00000000       0.00000000       0.00000000
Pd      10.43991375       6.78245558       5.40242713  F       0.00000000       0.00000000       0.00000000
Pd      12.26732186       7.45684429       7.39325505  T       0.00000000       0.00000000       0.00000000
Pd       4.92138948      11.07312632       3.44535000  F       0.00000000       0.00000000       0.00000000
Pd       1.23034737       9.84277895       3.44535000  F       0.00000000       0.00000000       0.00000000
Pd      11.67120661       9.23591801       5.37701028  F       0.00000000       0.00000000       0.00000000
Pd       1.18478320       9.80747107       7.34998708  T       0.00000000       0.00000000       0.00000000
Pd       0.61517368      11.68830001       1.50000000  F       0.00000000       0.00000000       0.00000000
Pd       2.46069474       0.00000000       3.44535000  F       0.00000000       0.00000000       0.00000000
Pd       2.41407416      -0.01151951       7.40647841  T       0.00000000       0.00000000       0.00000000
Pd       9.22719689      10.44932842       5.41286416  F       0.00000000       0.00000000       0.00000000
Pd       3.67476630       8.62677084       7.50052894  T       0.00000000       0.00000000       0.00000000
Pd       4.30621579       0.61517368       1.50000000  F       0.00000000       0.00000000       0.00000000
Pd      11.07312632       4.92138948       3.44535000  F       0.00000000       0.00000000       0.00000000
Pd       4.30621579       6.76691053       1.50000000  F       0.00000000       0.00000000       0.00000000
Pd       3.66918989       2.46643837       7.50722823  T       0.00000000       0.00000000       0.00000000
Pd       2.41287640       6.14392342       7.40557589  T       0.00000000       0.00000000       0.00000000
Pd       0.60433818       5.55187436       5.37993065  F       0.00000000       0.00000000       0.00000000
Pd       2.46069474       6.15173685       3.44535000  F       0.00000000       0.00000000       0.00000000
Pd       0.61517368       5.53656316       1.50000000  F       0.00000000       0.00000000       0.00000000
Pd       1.18571929       3.65190918       7.34913088  T       0.00000000       0.00000000       0.00000000
Pd      11.67123156       3.08419612       5.37703229  F       0.00000000       0.00000000       0.00000000
Pd       6.90981980       6.64335892       9.91145300  T       0.00000000       0.00000000       0.00000000
Pd       1.23034737       3.69104211       3.44535000  F       0.00000000       0.00000000       0.00000000
Pd      12.26615848       1.29917551       7.39200545  T       0.00000000       0.00000000       0.00000000
Pd      10.43990395       0.63072067       5.40242717  F       0.00000000       0.00000000       0.00000000
Pd       0.00000000       1.23034737       3.44535000  F       0.00000000       0.00000000       0.00000000
Pd       1.84552105       1.84552105       1.50000000  F       0.00000000       0.00000000       0.00000000
Pd      10.45795264       0.61517368       1.50000000  F       0.00000000       0.00000000       0.00000000
Pd      11.07855535      11.10752771       7.39741802  T       0.00000000       0.00000000       0.00000000
Pd       3.07550809      10.44932540       5.41290581  F       0.00000000       0.00000000       0.00000000
Pd       3.69104211       2.46069474       3.44535000  F       0.00000000       0.00000000       0.00000000
Pd       1.85442396       1.83305046       5.40626716  F       0.00000000       0.00000000       0.00000000
Pd      11.68830001       3.07586842       1.50000000  F       0.00000000       0.00000000       0.00000000
Pd       0.76695307       0.49200407       9.91330886  T       0.00000000       0.00000000       0.00000000
Pd       2.32597218       3.45634639       9.76427263  T       0.00000000       0.00000000       0.00000000
Pd       3.84786162       6.68276298       9.91192818  T       0.00000000       0.00000000       0.00000000
Pd       6.15173685       1.23034737       3.44535000  F       0.00000000       0.00000000       0.00000000
Pd       4.28818081       0.63072761       5.40241929  F       0.00000000       0.00000000       0.00000000
Pd       6.11316303       1.30479431       7.39363241  T       0.00000000       0.00000000       0.00000000
Pd       5.53656316       3.07586842       1.50000000  F       0.00000000       0.00000000       0.00000000
Pd       1.85444455       7.98478761       5.40627529  F       0.00000000       0.00000000       0.00000000
Pd       5.40281511       3.37536520       9.67857635  T       0.00000000       0.00000000       0.00000000
Pd       3.07586842      10.45795264       1.50000000  F       0.00000000       0.00000000       0.00000000
Pd       3.07586842       4.30621579       1.50000000  F       0.00000000       0.00000000       0.00000000
Pd       3.07547731       4.29761827       5.41291946  F       0.00000000       0.00000000       0.00000000
Pd      11.08525662       4.96109902       7.39705018  T       0.00000000       0.00000000       0.00000000
Pd      11.07312632      11.07312632       3.44535000  F       0.00000000       0.00000000       0.00000000
Pd      10.00555846       0.52882743       9.91250165  T       0.00000000       0.00000000       0.00000000
Pd       6.91694008       0.49169961       9.92160643  T       0.00000000       0.00000000       0.00000000
Pd       8.47933928       9.60477442       9.75749381  T       0.00000000       0.00000000       0.00000000
Pd       0.75806961       6.64611668       9.91198896  T       0.00000000       0.00000000       0.00000000
Pd       5.39481157       9.52593594       9.68922052  T       0.00000000       0.00000000       0.00000000
Pd      11.55001360       3.36399568       9.66640545  T       0.00000000       0.00000000       0.00000000
Pd       8.48663364       3.45334515       9.76047404  T       0.00000000       0.00000000       0.00000000
Pd      10.00075424       6.68238153       9.91457397  T       0.00000000       0.00000000       0.00000000
Pd       3.85615412       0.53649501       9.92752537  T       0.00000000       0.00000000       0.00000000
Pd       2.33693669       9.61004389       9.75615300  T       0.00000000       0.00000000       0.00000000
Pd       4.93879363      11.11888236       7.40255364  T       0.00000000       0.00000000       0.00000000
Pd      11.54906695       9.51833214       9.67146752  T       0.00000000       0.00000000       0.00000000
C        5.06271811       1.46114897      13.62489032  T       0.00000000       0.00000000       0.00000000
O        4.47489524       0.49036976      13.45453721  T       0.00000000       0.00000000       0.00000000
