114
Lattice="12.303473692417112 0.0 0.0 0.0 12.303473692417114 0.0 0.0 0.0 29.165420746594243" Properties=species:S:1:pos:R:3:move_mask:L:1:momenta:R:3 adsorbate_info="_JSON {\"site\": {\"coordinates\": [5.442084975677794, 8.600425760821661, 10.005039873406464], \"connectivity\": 2, \"topology\": [6, 104], \"n_vector\": [-0.011870486345793888, 0.36388066273261216, 0.9313699344745832], \"h_vector\": [0.004747494645529608, -0.9138347749370301, 0.40605845073139185], \"site_formula\": {\"O\": 1, \"Pd\": 1}}, \"smiles\": \"Cl[C]=O\", \"mdf\": 2.1146927062048295, \"adsorbate_formula\": \"CO\"}" mace_E=-574.9869305518271 converged=T n_steps=50 d_min=2.0129776395755936 site_type=unknown dE_rel_meV=0 original_idx=71 rank=1 E_MACE=-575.2718771571498 pbc="T T T"
O        8.48941089      11.61931960       9.35953908  T       0.00000000       0.00000000       0.00000000
O       11.49741646       5.42417933       9.36869589  T       0.00000000       0.00000000       0.00000000
O       11.56219147       1.67561095      10.57362922  T       0.00000000       0.00000000       0.00000000
O       11.51273374      11.57014370       9.37813785  T       0.00000000       0.00000000       0.00000000
O        8.43691789       7.84682465      10.54727152  T       0.00000000       0.00000000       0.00000000
O        5.35840688      11.61336376       9.32216003  T       0.00000000       0.00000000       0.00000000
O        5.39474524       7.74734052      10.65177294  T       0.00000000       0.00000000       0.00000000
O        8.47081222       5.47013194       9.35216545  T       0.00000000       0.00000000       0.00000000
O       11.54995825       7.81932649      10.57827358  T       0.00000000       0.00000000       0.00000000
O        2.31597073       5.46642372       9.34705430  T       0.00000000       0.00000000       0.00000000
O        2.29654173       1.70497866      10.54800771  T       0.00000000       0.00000000       0.00000000
O        2.32527617      11.61773222       9.36008417  T       0.00000000       0.00000000       0.00000000
O        5.34614091       5.41150948       9.37399299  T       0.00000000       0.00000000       0.00000000
O        5.41059316       1.67230132      10.57299474  T       0.00000000       0.00000000       0.00000000
O        2.28137356       7.84330623      10.55329517  T       0.00000000       0.00000000       0.00000000
O        8.46066636       1.70533960      10.55093349  T       0.00000000       0.00000000       0.00000000
Pd       5.53656316       9.22760527       1.50000000  F       0.00000000       0.00000000       0.00000000
Pd       6.10702435       7.46855746       7.39524301  T       0.00000000       0.00000000       0.00000000
Pd       4.28815433       6.78245218       5.40241719  F       0.00000000       0.00000000       0.00000000
Pd       6.15173685       7.38208422       3.44535000  F       0.00000000       0.00000000       0.00000000
Pd       7.33077223       3.65226066       7.35724443  T       0.00000000       0.00000000       0.00000000
Pd       5.51948843       3.08419342       5.37702261  F       0.00000000       0.00000000       0.00000000
Pd       6.76691053       5.53656316       1.50000000  F       0.00000000       0.00000000       0.00000000
Pd       7.38208422       9.84277895       3.44535000  F       0.00000000       0.00000000       0.00000000
Pd       7.99725790       7.99725790       1.50000000  F       0.00000000       0.00000000       0.00000000
Pd       5.51951598       9.23590192       5.37700272  F       0.00000000       0.00000000       0.00000000
Pd       8.00616182       7.98477587       5.40628129  F       0.00000000       0.00000000       0.00000000
Pd       6.76691053      11.68830001       1.50000000  F       0.00000000       0.00000000       0.00000000
Pd       8.61243158       0.00000000       3.44535000  F       0.00000000       0.00000000       0.00000000
Pd       6.75606179      11.70364973       5.37992114  F       0.00000000       0.00000000       0.00000000
Pd       8.56213721      -0.01782863       7.40674382  T       0.00000000       0.00000000       0.00000000
Pd       9.84277895       8.61243158       3.44535000  F       0.00000000       0.00000000       0.00000000
Pd       7.38208422       3.69104211       3.44535000  F       0.00000000       0.00000000       0.00000000
Pd       3.69104211       8.61243158       3.44535000  F       0.00000000       0.00000000       0.00000000
Pd       9.81608433       8.63042366       7.50221867  T       0.00000000       0.00000000       0.00000000
Pd       9.22760527      10.45795264       1.50000000  F       0.00000000       0.00000000       0.00000000
Pd       7.31532066       9.80811543       7.37747074  T       0.00000000       0.00000000       0.00000000
Pd       1.84552105       7.99725790       1.50000000  F       0.00000000       0.00000000       0.00000000
Pd      11.68830001       9.22760527       1.50000000  F       0.00000000       0.00000000       0.00000000
Pd       0.60431863      11.70356305       5.37989931  F       0.00000000       0.00000000       0.00000000
Pd       8.61243158       6.15173685       3.44535000  F       0.00000000       0.00000000       0.00000000
Pd       6.75605293       5.55187564       5.37990856  F       0.00000000       0.00000000       0.00000000
Pd       8.55091509       6.14891753       7.40432417  T       0.00000000       0.00000000       0.00000000
Pd       7.99725790       1.84552105       1.50000000  F       0.00000000       0.00000000       0.00000000
Pd       9.84277895       2.46069474       3.44535000  F       0.00000000       0.00000000       0.00000000
Pd       8.00617313       1.83308050       5.40627808  F       0.00000000       0.00000000       0.00000000
Pd       9.82433088       2.46629067       7.50305504  T       0.00000000       0.00000000       0.00000000
Pd       9.22760527       4.30621579       1.50000000  F       0.00000000       0.00000000       0.00000000
Pd       4.92138948       4.92138948       3.44535000  F       0.00000000       0.00000000       0.00000000
Pd       9.22722207       4.29761474       5.41287912  F       0.00000000       0.00000000       0.00000000
Pd       4.93406539       4.97719509       7.39821983  T       0.00000000       0.00000000       0.00000000
Pd      10.45795264       6.76691053       1.50000000  F       0.00000000       0.00000000       0.00000000
Pd       0.00000000       7.38208422       3.44535000  F       0.00000000       0.00000000       0.00000000
Pd      10.43991375       6.78245558       5.40242713  F       0.00000000       0.00000000       0.00000000
Pd      12.26086531       7.46247576       7.39005873  T       0.00000000       0.00000000       0.00000000
Pd       4.92138948      11.07312632       3.44535000  F       0.00000000       0.00000000       0.00000000
Pd       1.23034737       9.84277895       3.44535000  F       0.00000000       0.00000000       0.00000000
Pd      11.67120661       9.23591801       5.37701028  F       0.00000000       0.00000000       0.00000000
Pd       1.18531749       9.80487973       7.35097065  T       0.00000000       0.00000000       0.00000000
Pd       0.61517368      11.68830001       1.50000000  F       0.00000000       0.00000000       0.00000000
Pd       2.46069474       0.00000000       3.44535000  F       0.00000000       0.00000000       0.00000000
Pd       2.41227913      -0.01198500       7.40696828  T       0.00000000       0.00000000       0.00000000
Pd       9.22719689      10.44932842       5.41286416  F       0.00000000       0.00000000       0.00000000
Pd       3.68712553       8.63221680       7.53079768  T       0.00000000       0.00000000       0.00000000
Pd       4.30621579       0.61517368       1.50000000  F       0.00000000       0.00000000       0.00000000
Pd      11.07312632       4.92138948       3.44535000  F       0.00000000       0.00000000       0.00000000
Pd       4.30621579       6.76691053       1.50000000  F       0.00000000       0.00000000       0.00000000
Pd       3.67082008       2.48082421       7.49661976  T       0.00000000       0.00000000       0.00000000
Pd       2.41195730       6.15592190       7.40244670  T       0.00000000       0.00000000       0.00000000
Pd       0.60433818       5.55187436       5.37993065  F       0.00000000       0.00000000       0.00000000
Pd       2.46069474       6.15173685       3.44535000  F       0.00000000       0.00000000       0.00000000
Pd       0.61517368       5.53656316       1.50000000  F       0.00000000       0.00000000       0.00000000
Pd       1.17728560       3.65959432       7.35485812  T       0.00000000       0.00000000       0.00000000
Pd      11.67123156       3.08419612       5.37703229  F       0.00000000       0.00000000       0.00000000
Pd       6.90751805       6.67662932       9.90873556  T       0.00000000       0.00000000       0.00000000
Pd       1.23034737       3.69104211       3.44535000  F       0.00000000       0.00000000       0.00000000
Pd      12.26871948       1.30871880       7.38949217  T       0.00000000       0.00000000       0.00000000
Pd      10.43990395       0.63072067       5.40242717  F       0.00000000       0.00000000       0.00000000
Pd       0.00000000       1.23034737       3.44535000  F       0.00000000       0.00000000       0.00000000
Pd       1.84552105       1.84552105       1.50000000  F       0.00000000       0.00000000       0.00000000
Pd      10.45795264       0.61517368       1.50000000  F       0.00000000       0.00000000       0.00000000
Pd      11.08817635      11.12112029       7.40041226  T       0.00000000       0.00000000       0.00000000
Pd       3.07550809      10.44932540       5.41290581  F       0.00000000       0.00000000       0.00000000
Pd       3.69104211       2.46069474       3.44535000  F       0.00000000       0.00000000       0.00000000
Pd       1.85442396       1.83305046       5.40626716  F       0.00000000       0.00000000       0.00000000
Pd      11.68830001       3.07586842       1.50000000  F       0.00000000       0.00000000       0.00000000
Pd       0.76945882       0.53118103       9.91429488  T       0.00000000       0.00000000       0.00000000
Pd       2.33211249       3.48966793       9.76095572  T       0.00000000       0.00000000       0.00000000
Pd       3.84331872       6.70667797       9.92242167  T       0.00000000       0.00000000       0.00000000
Pd       6.15173685       1.23034737       3.44535000  F       0.00000000       0.00000000       0.00000000
Pd       4.28818081       0.63072761       5.40241929  F       0.00000000       0.00000000       0.00000000
Pd       6.10922465       1.29865527       7.37810647  T       0.00000000       0.00000000       0.00000000
Pd       5.53656316       3.07586842       1.50000000  F       0.00000000       0.00000000       0.00000000
Pd       1.85444455       7.98478761       5.40627529  F       0.00000000       0.00000000       0.00000000
Pd       5.39770608       3.40214960       9.67902916  T       0.00000000       0.00000000       0.00000000
Pd       3.07586842      10.45795264       1.50000000  F       0.00000000       0.00000000       0.00000000
Pd       3.07586842       4.30621579       1.50000000  F       0.00000000       0.00000000       0.00000000
Pd       3.07547731       4.29761827       5.41291946  F       0.00000000       0.00000000       0.00000000
Pd      11.07588903       4.96660781       7.39499845  T       0.00000000       0.00000000       0.00000000
Pd      11.07312632      11.07312632       3.44535000  F       0.00000000       0.00000000       0.00000000
Pd      10.01574009       0.56545677       9.92017951  T       0.00000000       0.00000000       0.00000000
Pd       6.92981556       0.54451553       9.90441020  T       0.00000000       0.00000000       0.00000000
Pd       8.50638195       9.63547276       9.76655462  T       0.00000000       0.00000000       0.00000000
Pd       0.75483023       6.67569843       9.91514862  T       0.00000000       0.00000000       0.00000000
Pd       5.38380631       9.62149359       9.91438203  T       0.00000000       0.00000000       0.00000000
Pd      11.54960365       3.41203444       9.68399568  T       0.00000000       0.00000000       0.00000000
Pd       8.49126099       3.49041377       9.76195856  T       0.00000000       0.00000000       0.00000000
Pd       9.99961885       6.71631017       9.91903539  T       0.00000000       0.00000000       0.00000000
Pd       3.85879777       0.58432259       9.89956607  T       0.00000000       0.00000000       0.00000000
Pd       2.30233061       9.63284232       9.76802215  T       0.00000000       0.00000000       0.00000000
Pd       4.92440246      11.08157807       7.38063621  T       0.00000000       0.00000000       0.00000000
Pd      11.55307568       9.55759280       9.69251451  T       0.00000000       0.00000000       0.00000000
C        5.19781083      10.20842789      11.71050932  T       0.00000000       0.00000000       0.00000000
O        5.05411902      10.60112984      12.78648642  T       0.00000000       0.00000000       0.00000000
