114
Lattice="12.303473692417112 0.0 0.0 0.0 12.303473692417114 0.0 0.0 0.0 29.165420746594243" Properties=species:S:1:pos:R:3:move_mask:L:1:momenta:R:3 adsorbate_info="_JSON {\"site\": {\"coordinates\": [1.585957618222476, 0.991052929130835, 10.125326927342902], \"connectivity\": 2, \"topology\": [10, 86], \"n_vector\": [-0.057047070810281604, -0.2509767253476278, 0.9663106721162444], \"h_vector\": [0.7571948424503495, 0.5862025428965761, 0.28813633798633936], \"site_formula\": {\"O\": 1, \"Pd\": 1}}, \"smiles\": \"Cl[C]=O\", \"mdf\": 2.5209744919750086, \"adsorbate_formula\": \"CO\"}" mace_E=-574.529582213539 converged=T n_steps=42 d_min=3.0549409953600306 site_type=atop dE_rel_meV=0 original_idx=16 rank=161 E_MACE=-574.4703906647842 pbc="T T T"
O        8.45517320      11.59671899       9.35303741  T       0.00000000       0.00000000       0.00000000
O       11.49836590       5.38102629       9.38411546  T       0.00000000       0.00000000       0.00000000
O       11.52541985       1.64181062      10.58867477  T       0.00000000       0.00000000       0.00000000
O       11.48281258      11.53962587       9.38723380  T       0.00000000       0.00000000       0.00000000
O        8.44025104       7.82881420      10.53069247  T       0.00000000       0.00000000       0.00000000
O        5.33498673      11.54634180       9.38304304  T       0.00000000       0.00000000       0.00000000
O        5.39109088       7.79820012      10.57453914  T       0.00000000       0.00000000       0.00000000
O        8.46172072       5.44180682       9.35082902  T       0.00000000       0.00000000       0.00000000
O       11.54159507       7.78644028      10.57086929  T       0.00000000       0.00000000       0.00000000
O        2.31842207       5.43826095       9.35405742  T       0.00000000       0.00000000       0.00000000
O        2.27549671       1.67605278      10.54668281  T       0.00000000       0.00000000       0.00000000
O        2.30108410      11.59311821       9.35393935  T       0.00000000       0.00000000       0.00000000
O        5.34646524       5.39505715       9.38237711  T       0.00000000       0.00000000       0.00000000
O        5.37885808       1.64426075      10.57461813  T       0.00000000       0.00000000       0.00000000
O        2.28288797       7.82681212      10.53438161  T       0.00000000       0.00000000       0.00000000
O        8.42230790       1.67744800      10.53948313  T       0.00000000       0.00000000       0.00000000
Pd       5.53656316       9.22760527       1.50000000  F       0.00000000       0.00000000       0.00000000
Pd       6.11232733       7.45780187       7.39144418  T       0.00000000       0.00000000       0.00000000
Pd       4.28815433       6.78245218       5.40241719  F       0.00000000       0.00000000       0.00000000
Pd       6.15173685       7.38208422       3.44535000  F       0.00000000       0.00000000       0.00000000
Pd       7.33284184       3.65462554       7.35054523  T       0.00000000       0.00000000       0.00000000
Pd       5.51948843       3.08419342       5.37702261  F       0.00000000       0.00000000       0.00000000
Pd       6.76691053       5.53656316       1.50000000  F       0.00000000       0.00000000       0.00000000
Pd       7.38208422       9.84277895       3.44535000  F       0.00000000       0.00000000       0.00000000
Pd       7.99725790       7.99725790       1.50000000  F       0.00000000       0.00000000       0.00000000
Pd       5.51951598       9.23590192       5.37700272  F       0.00000000       0.00000000       0.00000000
Pd       8.00616182       7.98477587       5.40628129  F       0.00000000       0.00000000       0.00000000
Pd       6.76691053      11.68830001       1.50000000  F       0.00000000       0.00000000       0.00000000
Pd       8.61243158       0.00000000       3.44535000  F       0.00000000       0.00000000       0.00000000
Pd       6.75606179      11.70364973       5.37992114  F       0.00000000       0.00000000       0.00000000
Pd       8.55810629      -0.00951426       7.40561185  T       0.00000000       0.00000000       0.00000000
Pd       9.84277895       8.61243158       3.44535000  F       0.00000000       0.00000000       0.00000000
Pd       7.38208422       3.69104211       3.44535000  F       0.00000000       0.00000000       0.00000000
Pd       3.69104211       8.61243158       3.44535000  F       0.00000000       0.00000000       0.00000000
Pd       9.81894633       8.62313544       7.49727966  T       0.00000000       0.00000000       0.00000000
Pd       9.22760527      10.45795264       1.50000000  F       0.00000000       0.00000000       0.00000000
Pd       7.33105101       9.80724474       7.35062274  T       0.00000000       0.00000000       0.00000000
Pd       1.84552105       7.99725790       1.50000000  F       0.00000000       0.00000000       0.00000000
Pd      11.68830001       9.22760527       1.50000000  F       0.00000000       0.00000000       0.00000000
Pd       0.60431863      11.70356305       5.37989931  F       0.00000000       0.00000000       0.00000000
Pd       8.61243158       6.15173685       3.44535000  F       0.00000000       0.00000000       0.00000000
Pd       6.75605293       5.55187564       5.37990856  F       0.00000000       0.00000000       0.00000000
Pd       8.56162169       6.14209863       7.40349275  T       0.00000000       0.00000000       0.00000000
Pd       7.99725790       1.84552105       1.50000000  F       0.00000000       0.00000000       0.00000000
Pd       9.84277895       2.46069474       3.44535000  F       0.00000000       0.00000000       0.00000000
Pd       8.00617313       1.83308050       5.40627808  F       0.00000000       0.00000000       0.00000000
Pd       9.81829597       2.46528908       7.50405560  T       0.00000000       0.00000000       0.00000000
Pd       9.22760527       4.30621579       1.50000000  F       0.00000000       0.00000000       0.00000000
Pd       4.92138948       4.92138948       3.44535000  F       0.00000000       0.00000000       0.00000000
Pd       9.22722207       4.29761474       5.41287912  F       0.00000000       0.00000000       0.00000000
Pd       4.93113997       4.96227842       7.40175481  T       0.00000000       0.00000000       0.00000000
Pd      10.45795264       6.76691053       1.50000000  F       0.00000000       0.00000000       0.00000000
Pd       0.00000000       7.38208422       3.44535000  F       0.00000000       0.00000000       0.00000000
Pd      10.43991375       6.78245558       5.40242713  F       0.00000000       0.00000000       0.00000000
Pd      12.26179177       7.45159162       7.39092431  T       0.00000000       0.00000000       0.00000000
Pd       4.92138948      11.07312632       3.44535000  F       0.00000000       0.00000000       0.00000000
Pd       1.23034737       9.84277895       3.44535000  F       0.00000000       0.00000000       0.00000000
Pd      11.67120661       9.23591801       5.37701028  F       0.00000000       0.00000000       0.00000000
Pd       1.17811512       9.80249625       7.35309092  T       0.00000000       0.00000000       0.00000000
Pd       0.61517368      11.68830001       1.50000000  F       0.00000000       0.00000000       0.00000000
Pd       2.46069474       0.00000000       3.44535000  F       0.00000000       0.00000000       0.00000000
Pd       2.40611484      -0.01288455       7.40907927  T       0.00000000       0.00000000       0.00000000
Pd       9.22719689      10.44932842       5.41286416  F       0.00000000       0.00000000       0.00000000
Pd       3.67040677       8.61828432       7.50283749  T       0.00000000       0.00000000       0.00000000
Pd       4.30621579       0.61517368       1.50000000  F       0.00000000       0.00000000       0.00000000
Pd      11.07312632       4.92138948       3.44535000  F       0.00000000       0.00000000       0.00000000
Pd       4.30621579       6.76691053       1.50000000  F       0.00000000       0.00000000       0.00000000
Pd       3.66811763       2.46602087       7.50344485  T       0.00000000       0.00000000       0.00000000
Pd       2.41095151       6.14186092       7.40702777  T       0.00000000       0.00000000       0.00000000
Pd       0.60433818       5.55187436       5.37993065  F       0.00000000       0.00000000       0.00000000
Pd       2.46069474       6.15173685       3.44535000  F       0.00000000       0.00000000       0.00000000
Pd       0.61517368       5.53656316       1.50000000  F       0.00000000       0.00000000       0.00000000
Pd       1.18370127       3.65501048       7.35043664  T       0.00000000       0.00000000       0.00000000
Pd      11.67123156       3.08419612       5.37703229  F       0.00000000       0.00000000       0.00000000
Pd       6.90588532       6.65659353       9.91361376  T       0.00000000       0.00000000       0.00000000
Pd       1.23034737       3.69104211       3.44535000  F       0.00000000       0.00000000       0.00000000
Pd      12.26489654       1.30743826       7.39661421  T       0.00000000       0.00000000       0.00000000
Pd      10.43990395       0.63072067       5.40242717  F       0.00000000       0.00000000       0.00000000
Pd       0.00000000       1.23034737       3.44535000  F       0.00000000       0.00000000       0.00000000
Pd       1.84552105       1.84552105       1.50000000  F       0.00000000       0.00000000       0.00000000
Pd      10.45795264       0.61517368       1.50000000  F       0.00000000       0.00000000       0.00000000
Pd      11.08087791      11.12344807       7.40412434  T       0.00000000       0.00000000       0.00000000
Pd       3.07550809      10.44932540       5.41290581  F       0.00000000       0.00000000       0.00000000
Pd       3.69104211       2.46069474       3.44535000  F       0.00000000       0.00000000       0.00000000
Pd       1.85442396       1.83305046       5.40626716  F       0.00000000       0.00000000       0.00000000
Pd      11.68830001       3.07586842       1.50000000  F       0.00000000       0.00000000       0.00000000
Pd       0.73906967       0.49295726       9.93672658  T       0.00000000       0.00000000       0.00000000
Pd       2.32077785       3.45842629       9.76260723  T       0.00000000       0.00000000       0.00000000
Pd       3.84587439       6.69159305       9.91559565  T       0.00000000       0.00000000       0.00000000
Pd       6.15173685       1.23034737       3.44535000  F       0.00000000       0.00000000       0.00000000
Pd       4.28818081       0.63072761       5.40241929  F       0.00000000       0.00000000       0.00000000
Pd       6.11163875       1.30550656       7.39233687  T       0.00000000       0.00000000       0.00000000
Pd       5.53656316       3.07586842       1.50000000  F       0.00000000       0.00000000       0.00000000
Pd       1.85444455       7.98478761       5.40627529  F       0.00000000       0.00000000       0.00000000
Pd       5.38259204       3.37771779       9.67917169  T       0.00000000       0.00000000       0.00000000
Pd       3.07586842      10.45795264       1.50000000  F       0.00000000       0.00000000       0.00000000
Pd       3.07586842       4.30621579       1.50000000  F       0.00000000       0.00000000       0.00000000
Pd       3.07547731       4.29761827       5.41291946  F       0.00000000       0.00000000       0.00000000
Pd      11.08183109       4.95651292       7.40298600  T       0.00000000       0.00000000       0.00000000
Pd      11.07312632      11.07312632       3.44535000  F       0.00000000       0.00000000       0.00000000
Pd       9.98424346       0.53569001       9.92799474  T       0.00000000       0.00000000       0.00000000
Pd       6.89387059       0.50301727       9.91613733  T       0.00000000       0.00000000       0.00000000
Pd       8.47617861       9.61741573       9.75672546  T       0.00000000       0.00000000       0.00000000
Pd       0.75496679       6.64435512       9.91598697  T       0.00000000       0.00000000       0.00000000
Pd       5.38389262       9.53320580       9.68396306  T       0.00000000       0.00000000       0.00000000
Pd      11.53341244       3.36605550       9.68515503  T       0.00000000       0.00000000       0.00000000
Pd       8.46912171       3.46338506       9.76035746  T       0.00000000       0.00000000       0.00000000
Pd       9.99718864       6.68351581       9.91129167  T       0.00000000       0.00000000       0.00000000
Pd       3.83158436       0.53868776       9.91941084  T       0.00000000       0.00000000       0.00000000
Pd       2.32271793       9.61385464       9.75771022  T       0.00000000       0.00000000       0.00000000
Pd       4.92644191      11.11440894       7.40251060  T       0.00000000       0.00000000       0.00000000
Pd      11.53374262       9.51602211       9.66341473  T       0.00000000       0.00000000       0.00000000
C        0.28831427      -0.57250933      12.80470673  T       0.00000000       0.00000000       0.00000000
O        0.29630589      -1.71678460      12.91742707  T       0.00000000       0.00000000       0.00000000
