114
Lattice="12.303473692417112 0.0 0.0 0.0 12.303473692417114 0.0 0.0 0.0 29.165420746594243" Properties=species:S:1:pos:R:3:move_mask:L:1:momenta:R:3 adsorbate_info="_JSON {\"site\": {\"coordinates\": [5.426058945808004, 10.477035752126186, 9.456788308456641], \"connectivity\": 2, \"topology\": [5, 104], \"n_vector\": [0.006698636622619251, 0.049609749149187254, 0.9987462145393858], \"h_vector\": [0.011401939406594593, -0.9880398684999547, 0.153776506763422], \"site_formula\": {\"O\": 1, \"Pd\": 1}}, \"smiles\": \"Cl[C]=O\", \"mdf\": 1.8020999550842423, \"adsorbate_formula\": \"CO\"}" mace_E=-574.5252112207752 converged=T n_steps=40 d_min=2.012507075443229 site_type=atop dE_rel_meV=0 original_idx=73 rank=6 E_MACE=-575.2695514101143 pbc="T T T"
O        8.48097643      11.58037896       9.34936883  T       0.00000000       0.00000000       0.00000000
O       11.51202081       5.39217724       9.38094769  T       0.00000000       0.00000000       0.00000000
O       11.55781689       1.63812186      10.56698082  T       0.00000000       0.00000000       0.00000000
O       11.51511765      11.53828211       9.37719000  T       0.00000000       0.00000000       0.00000000
O        8.44838494       7.82116605      10.53975657  T       0.00000000       0.00000000       0.00000000
O        5.35615473      11.53248844       9.38247475  T       0.00000000       0.00000000       0.00000000
O        5.40529319       7.78013114      10.58261374  T       0.00000000       0.00000000       0.00000000
O        8.48343343       5.43679894       9.35406393  T       0.00000000       0.00000000       0.00000000
O       11.55882533       7.79120228      10.57689865  T       0.00000000       0.00000000       0.00000000
O        2.32466654       5.43805894       9.35170159  T       0.00000000       0.00000000       0.00000000
O        2.30013436       1.67230459      10.54092040  T       0.00000000       0.00000000       0.00000000
O        2.33347583      11.58984190       9.35417595  T       0.00000000       0.00000000       0.00000000
O        5.35933603       5.38360900       9.37925026  T       0.00000000       0.00000000       0.00000000
O        5.41222637       1.64200958      10.56844132  T       0.00000000       0.00000000       0.00000000
O        2.30030140       7.82480464      10.53812159  T       0.00000000       0.00000000       0.00000000
O        8.45300909       1.66687313      10.53522567  T       0.00000000       0.00000000       0.00000000
Pd       5.53656316       9.22760527       1.50000000  F       0.00000000       0.00000000       0.00000000
Pd       6.11270685       7.45290806       7.39382654  T       0.00000000       0.00000000       0.00000000
Pd       4.28815433       6.78245218       5.40241719  F       0.00000000       0.00000000       0.00000000
Pd       6.15173685       7.38208422       3.44535000  F       0.00000000       0.00000000       0.00000000
Pd       7.34000761       3.65200470       7.35291289  T       0.00000000       0.00000000       0.00000000
Pd       5.51948843       3.08419342       5.37702261  F       0.00000000       0.00000000       0.00000000
Pd       6.76691053       5.53656316       1.50000000  F       0.00000000       0.00000000       0.00000000
Pd       7.38208422       9.84277895       3.44535000  F       0.00000000       0.00000000       0.00000000
Pd       7.99725790       7.99725790       1.50000000  F       0.00000000       0.00000000       0.00000000
Pd       5.51951598       9.23590192       5.37700272  F       0.00000000       0.00000000       0.00000000
Pd       8.00616182       7.98477587       5.40628129  F       0.00000000       0.00000000       0.00000000
Pd       6.76691053      11.68830001       1.50000000  F       0.00000000       0.00000000       0.00000000
Pd       8.61243158       0.00000000       3.44535000  F       0.00000000       0.00000000       0.00000000
Pd       6.75606179      11.70364973       5.37992114  F       0.00000000       0.00000000       0.00000000
Pd       8.56064101      -0.01191558       7.40529156  T       0.00000000       0.00000000       0.00000000
Pd       9.84277895       8.61243158       3.44535000  F       0.00000000       0.00000000       0.00000000
Pd       7.38208422       3.69104211       3.44535000  F       0.00000000       0.00000000       0.00000000
Pd       3.69104211       8.61243158       3.44535000  F       0.00000000       0.00000000       0.00000000
Pd       9.82614309       8.61468146       7.50288691  T       0.00000000       0.00000000       0.00000000
Pd       9.22760527      10.45795264       1.50000000  F       0.00000000       0.00000000       0.00000000
Pd       7.33446685       9.80060878       7.35227124  T       0.00000000       0.00000000       0.00000000
Pd       1.84552105       7.99725790       1.50000000  F       0.00000000       0.00000000       0.00000000
Pd      11.68830001       9.22760527       1.50000000  F       0.00000000       0.00000000       0.00000000
Pd       0.60431863      11.70356305       5.37989931  F       0.00000000       0.00000000       0.00000000
Pd       8.61243158       6.15173685       3.44535000  F       0.00000000       0.00000000       0.00000000
Pd       6.75605293       5.55187564       5.37990856  F       0.00000000       0.00000000       0.00000000
Pd       8.56336968       6.14198251       7.40772812  T       0.00000000       0.00000000       0.00000000
Pd       7.99725790       1.84552105       1.50000000  F       0.00000000       0.00000000       0.00000000
Pd       9.84277895       2.46069474       3.44535000  F       0.00000000       0.00000000       0.00000000
Pd       8.00617313       1.83308050       5.40627808  F       0.00000000       0.00000000       0.00000000
Pd       9.82696889       2.46650550       7.49828458  T       0.00000000       0.00000000       0.00000000
Pd       9.22760527       4.30621579       1.50000000  F       0.00000000       0.00000000       0.00000000
Pd       4.92138948       4.92138948       3.44535000  F       0.00000000       0.00000000       0.00000000
Pd       9.22722207       4.29761474       5.41287912  F       0.00000000       0.00000000       0.00000000
Pd       4.93324608       4.95758821       7.39845828  T       0.00000000       0.00000000       0.00000000
Pd      10.45795264       6.76691053       1.50000000  F       0.00000000       0.00000000       0.00000000
Pd       0.00000000       7.38208422       3.44535000  F       0.00000000       0.00000000       0.00000000
Pd      10.43991375       6.78245558       5.40242713  F       0.00000000       0.00000000       0.00000000
Pd      12.26776545       7.45749375       7.39437942  T       0.00000000       0.00000000       0.00000000
Pd       4.92138948      11.07312632       3.44535000  F       0.00000000       0.00000000       0.00000000
Pd       1.23034737       9.84277895       3.44535000  F       0.00000000       0.00000000       0.00000000
Pd      11.67120661       9.23591801       5.37701028  F       0.00000000       0.00000000       0.00000000
Pd       1.18622523       9.80483464       7.35352981  T       0.00000000       0.00000000       0.00000000
Pd       0.61517368      11.68830001       1.50000000  F       0.00000000       0.00000000       0.00000000
Pd       2.46069474       0.00000000       3.44535000  F       0.00000000       0.00000000       0.00000000
Pd       2.41156668      -0.01182385       7.40466683  T       0.00000000       0.00000000       0.00000000
Pd       9.22719689      10.44932842       5.41286416  F       0.00000000       0.00000000       0.00000000
Pd       3.67421442       8.62010088       7.49899273  T       0.00000000       0.00000000       0.00000000
Pd       4.30621579       0.61517368       1.50000000  F       0.00000000       0.00000000       0.00000000
Pd      11.07312632       4.92138948       3.44535000  F       0.00000000       0.00000000       0.00000000
Pd       4.30621579       6.76691053       1.50000000  F       0.00000000       0.00000000       0.00000000
Pd       3.66865582       2.46589090       7.50325056  T       0.00000000       0.00000000       0.00000000
Pd       2.41135668       6.14200307       7.40507324  T       0.00000000       0.00000000       0.00000000
Pd       0.60433818       5.55187436       5.37993065  F       0.00000000       0.00000000       0.00000000
Pd       2.46069474       6.15173685       3.44535000  F       0.00000000       0.00000000       0.00000000
Pd       0.61517368       5.53656316       1.50000000  F       0.00000000       0.00000000       0.00000000
Pd       1.18507749       3.65466790       7.35332799  T       0.00000000       0.00000000       0.00000000
Pd      11.67123156       3.08419612       5.37703229  F       0.00000000       0.00000000       0.00000000
Pd       6.91994039       6.64402929       9.91624256  T       0.00000000       0.00000000       0.00000000
Pd       1.23034737       3.69104211       3.44535000  F       0.00000000       0.00000000       0.00000000
Pd      12.26802969       1.30382986       7.39395741  T       0.00000000       0.00000000       0.00000000
Pd      10.43990395       0.63072067       5.40242717  F       0.00000000       0.00000000       0.00000000
Pd       0.00000000       1.23034737       3.44535000  F       0.00000000       0.00000000       0.00000000
Pd       1.84552105       1.84552105       1.50000000  F       0.00000000       0.00000000       0.00000000
Pd      10.45795264       0.61517368       1.50000000  F       0.00000000       0.00000000       0.00000000
Pd      11.08480451      11.11015253       7.39947121  T       0.00000000       0.00000000       0.00000000
Pd       3.07550809      10.44932540       5.41290581  F       0.00000000       0.00000000       0.00000000
Pd       3.69104211       2.46069474       3.44535000  F       0.00000000       0.00000000       0.00000000
Pd       1.85442396       1.83305046       5.40626716  F       0.00000000       0.00000000       0.00000000
Pd      11.68830001       3.07586842       1.50000000  F       0.00000000       0.00000000       0.00000000
Pd       0.77160402       0.49746559       9.91250775  T       0.00000000       0.00000000       0.00000000
Pd       2.33761533       3.45858091       9.76020962  T       0.00000000       0.00000000       0.00000000
Pd       3.85804499       6.68090747       9.91659968  T       0.00000000       0.00000000       0.00000000
Pd       6.15173685       1.23034737       3.44535000  F       0.00000000       0.00000000       0.00000000
Pd       4.28818081       0.63072761       5.40241929  F       0.00000000       0.00000000       0.00000000
Pd       6.11298067       1.30475416       7.39047656  T       0.00000000       0.00000000       0.00000000
Pd       5.53656316       3.07586842       1.50000000  F       0.00000000       0.00000000       0.00000000
Pd       1.85444455       7.98478761       5.40627529  F       0.00000000       0.00000000       0.00000000
Pd       5.41106780       3.37277095       9.67338701  T       0.00000000       0.00000000       0.00000000
Pd       3.07586842      10.45795264       1.50000000  F       0.00000000       0.00000000       0.00000000
Pd       3.07586842       4.30621579       1.50000000  F       0.00000000       0.00000000       0.00000000
Pd       3.07547731       4.29761827       5.41291946  F       0.00000000       0.00000000       0.00000000
Pd      11.08785768       4.96473614       7.40093104  T       0.00000000       0.00000000       0.00000000
Pd      11.07312632      11.07312632       3.44535000  F       0.00000000       0.00000000       0.00000000
Pd      10.01192190       0.52936297       9.91204135  T       0.00000000       0.00000000       0.00000000
Pd       6.91907034       0.49159030       9.91245456  T       0.00000000       0.00000000       0.00000000
Pd       8.48835591       9.60500835       9.75632305  T       0.00000000       0.00000000       0.00000000
Pd       0.76870374       6.65097814       9.91614224  T       0.00000000       0.00000000       0.00000000
Pd       5.40203349       9.51544506       9.68300972  T       0.00000000       0.00000000       0.00000000
Pd      11.55512240       3.37162228       9.66951976  T       0.00000000       0.00000000       0.00000000
Pd       8.49196947       3.45541231       9.75913564  T       0.00000000       0.00000000       0.00000000
Pd      10.01161469       6.68727831       9.91787780  T       0.00000000       0.00000000       0.00000000
Pd       3.86345305       0.53417726       9.91870113  T       0.00000000       0.00000000       0.00000000
Pd       2.34636229       9.61147404       9.75914404  T       0.00000000       0.00000000       0.00000000
Pd       4.93542763      11.11593735       7.40147980  T       0.00000000       0.00000000       0.00000000
Pd      11.56060430       9.52374578       9.67958454  T       0.00000000       0.00000000       0.00000000
C        5.71172633      11.67249463      12.90831675  T       0.00000000       0.00000000       0.00000000
O        4.91564711      12.34246231      13.39320270  T       0.00000000       0.00000000       0.00000000
