114
Lattice="12.303473692417112 0.0 0.0 0.0 12.303473692417114 0.0 0.0 0.0 29.165420746594243" Properties=species:S:1:pos:R:3:move_mask:L:1:momenta:R:3 adsorbate_info="_JSON {\"site\": {\"coordinates\": [6.974033317794095, 7.332905627437188, 10.216667376038997], \"connectivity\": 3, \"topology\": [4, 6, 74], \"n_vector\": [-0.001449727813270765, -0.15899810603748757, 0.9872778233940837], \"h_vector\": [0.7623197205976097, -0.582078754236174, -0.2829363310973796], \"site_formula\": {\"O\": 2, \"Pd\": 1}}, \"smiles\": \"Cl[C]=O\", \"mdf\": 2.4230272139468876, \"adsorbate_formula\": \"CO\"}" mace_E=-574.4703906647842 converged=T n_steps=38 d_min=3.317317215126904 site_type=atop dE_rel_meV=0 original_idx=94 rank=85 E_MACE=-574.5542649521043 pbc="T T T"
O        8.46270582      11.58786497       9.35048383  T       0.00000000       0.00000000       0.00000000
O       11.50078472       5.36975386       9.38140817  T       0.00000000       0.00000000       0.00000000
O       11.54226222       1.62202462      10.59218959  T       0.00000000       0.00000000       0.00000000
O       11.49465054      11.53202573       9.38031474  T       0.00000000       0.00000000       0.00000000
O        8.44213286       7.81563900      10.53181620  T       0.00000000       0.00000000       0.00000000
O        5.34471699      11.54570826       9.37426295  T       0.00000000       0.00000000       0.00000000
O        5.39782652       7.78636850      10.53603284  T       0.00000000       0.00000000       0.00000000
O        8.47236901       5.42412337       9.34846511  T       0.00000000       0.00000000       0.00000000
O       11.54761196       7.77872309      10.56545429  T       0.00000000       0.00000000       0.00000000
O        2.31546312       5.42683067       9.34949833  T       0.00000000       0.00000000       0.00000000
O        2.28050943       1.66377385      10.55041005  T       0.00000000       0.00000000       0.00000000
O        2.31699701      11.58896113       9.35020202  T       0.00000000       0.00000000       0.00000000
O        5.34779088       5.37631363       9.37307050  T       0.00000000       0.00000000       0.00000000
O        5.39172477       1.63181973      10.58586006  T       0.00000000       0.00000000       0.00000000
O        2.28495583       7.81800882      10.52912762  T       0.00000000       0.00000000       0.00000000
O        8.43627622       1.66365900      10.55227615  T       0.00000000       0.00000000       0.00000000
Pd       5.53656316       9.22760527       1.50000000  F       0.00000000       0.00000000       0.00000000
Pd       6.11161860       7.45422290       7.38978838  T       0.00000000       0.00000000       0.00000000
Pd       4.28815433       6.78245218       5.40241719  F       0.00000000       0.00000000       0.00000000
Pd       6.15173685       7.38208422       3.44535000  F       0.00000000       0.00000000       0.00000000
Pd       7.33745685       3.64707480       7.35281572  T       0.00000000       0.00000000       0.00000000
Pd       5.51948843       3.08419342       5.37702261  F       0.00000000       0.00000000       0.00000000
Pd       6.76691053       5.53656316       1.50000000  F       0.00000000       0.00000000       0.00000000
Pd       7.38208422       9.84277895       3.44535000  F       0.00000000       0.00000000       0.00000000
Pd       7.99725790       7.99725790       1.50000000  F       0.00000000       0.00000000       0.00000000
Pd       5.51951598       9.23590192       5.37700272  F       0.00000000       0.00000000       0.00000000
Pd       8.00616182       7.98477587       5.40628129  F       0.00000000       0.00000000       0.00000000
Pd       6.76691053      11.68830001       1.50000000  F       0.00000000       0.00000000       0.00000000
Pd       8.61243158       0.00000000       3.44535000  F       0.00000000       0.00000000       0.00000000
Pd       6.75606179      11.70364973       5.37992114  F       0.00000000       0.00000000       0.00000000
Pd       8.55889427      -0.00574916       7.40469355  T       0.00000000       0.00000000       0.00000000
Pd       9.84277895       8.61243158       3.44535000  F       0.00000000       0.00000000       0.00000000
Pd       7.38208422       3.69104211       3.44535000  F       0.00000000       0.00000000       0.00000000
Pd       3.69104211       8.61243158       3.44535000  F       0.00000000       0.00000000       0.00000000
Pd       9.82416124       8.61758309       7.50017795  T       0.00000000       0.00000000       0.00000000
Pd       9.22760527      10.45795264       1.50000000  F       0.00000000       0.00000000       0.00000000
Pd       7.33383287       9.80346505       7.35088143  T       0.00000000       0.00000000       0.00000000
Pd       1.84552105       7.99725790       1.50000000  F       0.00000000       0.00000000       0.00000000
Pd      11.68830001       9.22760527       1.50000000  F       0.00000000       0.00000000       0.00000000
Pd       0.60431863      11.70356305       5.37989931  F       0.00000000       0.00000000       0.00000000
Pd       8.61243158       6.15173685       3.44535000  F       0.00000000       0.00000000       0.00000000
Pd       6.75605293       5.55187564       5.37990856  F       0.00000000       0.00000000       0.00000000
Pd       8.56361020       6.13872520       7.40228918  T       0.00000000       0.00000000       0.00000000
Pd       7.99725790       1.84552105       1.50000000  F       0.00000000       0.00000000       0.00000000
Pd       9.84277895       2.46069474       3.44535000  F       0.00000000       0.00000000       0.00000000
Pd       8.00617313       1.83308050       5.40627808  F       0.00000000       0.00000000       0.00000000
Pd       9.82714154       2.46581645       7.50486735  T       0.00000000       0.00000000       0.00000000
Pd       9.22760527       4.30621579       1.50000000  F       0.00000000       0.00000000       0.00000000
Pd       4.92138948       4.92138948       3.44535000  F       0.00000000       0.00000000       0.00000000
Pd       9.22722207       4.29761474       5.41287912  F       0.00000000       0.00000000       0.00000000
Pd       4.93537318       4.95474070       7.39813858  T       0.00000000       0.00000000       0.00000000
Pd      10.45795264       6.76691053       1.50000000  F       0.00000000       0.00000000       0.00000000
Pd       0.00000000       7.38208422       3.44535000  F       0.00000000       0.00000000       0.00000000
Pd      10.43991375       6.78245558       5.40242713  F       0.00000000       0.00000000       0.00000000
Pd      12.26128820       7.45431040       7.39539915  T       0.00000000       0.00000000       0.00000000
Pd       4.92138948      11.07312632       3.44535000  F       0.00000000       0.00000000       0.00000000
Pd       1.23034737       9.84277895       3.44535000  F       0.00000000       0.00000000       0.00000000
Pd      11.67120661       9.23591801       5.37701028  F       0.00000000       0.00000000       0.00000000
Pd       1.17973464       9.80110634       7.35069999  T       0.00000000       0.00000000       0.00000000
Pd       0.61517368      11.68830001       1.50000000  F       0.00000000       0.00000000       0.00000000
Pd       2.46069474       0.00000000       3.44535000  F       0.00000000       0.00000000       0.00000000
Pd       2.40526554      -0.00932971       7.40358774  T       0.00000000       0.00000000       0.00000000
Pd       9.22719689      10.44932842       5.41286416  F       0.00000000       0.00000000       0.00000000
Pd       3.67190436       8.61852511       7.49931972  T       0.00000000       0.00000000       0.00000000
Pd       4.30621579       0.61517368       1.50000000  F       0.00000000       0.00000000       0.00000000
Pd      11.07312632       4.92138948       3.44535000  F       0.00000000       0.00000000       0.00000000
Pd       4.30621579       6.76691053       1.50000000  F       0.00000000       0.00000000       0.00000000
Pd       3.67145411       2.46332486       7.50293607  T       0.00000000       0.00000000       0.00000000
Pd       2.40846022       6.13767253       7.40281909  T       0.00000000       0.00000000       0.00000000
Pd       0.60433818       5.55187436       5.37993065  F       0.00000000       0.00000000       0.00000000
Pd       2.46069474       6.15173685       3.44535000  F       0.00000000       0.00000000       0.00000000
Pd       0.61517368       5.53656316       1.50000000  F       0.00000000       0.00000000       0.00000000
Pd       1.18267330       3.64486427       7.35287224  T       0.00000000       0.00000000       0.00000000
Pd      11.67123156       3.08419612       5.37703229  F       0.00000000       0.00000000       0.00000000
Pd       6.91216515       6.63593916       9.90475949  T       0.00000000       0.00000000       0.00000000
Pd       1.23034737       3.69104211       3.44535000  F       0.00000000       0.00000000       0.00000000
Pd      12.26119989       1.30207781       7.39848780  T       0.00000000       0.00000000       0.00000000
Pd      10.43990395       0.63072067       5.40242717  F       0.00000000       0.00000000       0.00000000
Pd       0.00000000       1.23034737       3.44535000  F       0.00000000       0.00000000       0.00000000
Pd       1.84552105       1.84552105       1.50000000  F       0.00000000       0.00000000       0.00000000
Pd      10.45795264       0.61517368       1.50000000  F       0.00000000       0.00000000       0.00000000
Pd      11.08150036      11.11299468       7.40076830  T       0.00000000       0.00000000       0.00000000
Pd       3.07550809      10.44932540       5.41290581  F       0.00000000       0.00000000       0.00000000
Pd       3.69104211       2.46069474       3.44535000  F       0.00000000       0.00000000       0.00000000
Pd       1.85442396       1.83305046       5.40626716  F       0.00000000       0.00000000       0.00000000
Pd      11.68830001       3.07586842       1.50000000  F       0.00000000       0.00000000       0.00000000
Pd       0.75155948       0.48846466       9.92005799  T       0.00000000       0.00000000       0.00000000
Pd       2.32248743       3.44986709       9.76446523  T       0.00000000       0.00000000       0.00000000
Pd       3.84755563       6.67664105       9.90471896  T       0.00000000       0.00000000       0.00000000
Pd       6.15173685       1.23034737       3.44535000  F       0.00000000       0.00000000       0.00000000
Pd       4.28818081       0.63072761       5.40241929  F       0.00000000       0.00000000       0.00000000
Pd       6.10983835       1.30617258       7.39696538  T       0.00000000       0.00000000       0.00000000
Pd       5.53656316       3.07586842       1.50000000  F       0.00000000       0.00000000       0.00000000
Pd       1.85444455       7.98478761       5.40627529  F       0.00000000       0.00000000       0.00000000
Pd       5.39221718       3.36629522       9.68698763  T       0.00000000       0.00000000       0.00000000
Pd       3.07586842      10.45795264       1.50000000  F       0.00000000       0.00000000       0.00000000
Pd       3.07586842       4.30621579       1.50000000  F       0.00000000       0.00000000       0.00000000
Pd       3.07547731       4.29761827       5.41291946  F       0.00000000       0.00000000       0.00000000
Pd      11.08921694       4.95618040       7.40214008  T       0.00000000       0.00000000       0.00000000
Pd      11.07312632      11.07312632       3.44535000  F       0.00000000       0.00000000       0.00000000
Pd       9.99539424       0.52413370       9.92495215  T       0.00000000       0.00000000       0.00000000
Pd       6.90463284       0.49552697       9.91821753  T       0.00000000       0.00000000       0.00000000
Pd       8.47629783       9.60791592       9.75910018  T       0.00000000       0.00000000       0.00000000
Pd       0.75576722       6.63755216       9.90893289  T       0.00000000       0.00000000       0.00000000
Pd       5.39743813       9.53392664       9.67221528  T       0.00000000       0.00000000       0.00000000
Pd      11.54396733       3.35885152       9.69563316  T       0.00000000       0.00000000       0.00000000
Pd       8.47986373       3.44826374       9.76441481  T       0.00000000       0.00000000       0.00000000
Pd      10.00144944       6.67249737       9.91159853  T       0.00000000       0.00000000       0.00000000
Pd       3.84398285       0.53194133       9.92141684  T       0.00000000       0.00000000       0.00000000
Pd       2.32711115       9.60995781       9.75734354  T       0.00000000       0.00000000       0.00000000
Pd       4.93053020      11.11625299       7.39676623  T       0.00000000       0.00000000       0.00000000
Pd      11.54299113       9.51870539       9.67810535  T       0.00000000       0.00000000       0.00000000
C        5.77945280       8.79967640      13.39264498  T       0.00000000       0.00000000       0.00000000
O        5.22343781       7.86953826      13.76886233  T       0.00000000       0.00000000       0.00000000
