       N       E                     dE             d eps       ncg     rms          rms(c)
DAV:   1     0.479136383509E+03    0.47914E+03   -0.28674E+04  6736   0.185E+03
DAV:   2     0.209524396098E-01   -0.47912E+03   -0.46402E+03  7344   0.513E+02
DAV:   3    -0.240749415843E+02   -0.24096E+02   -0.23757E+02  7340   0.117E+02
DAV:   4    -0.243659099791E+02   -0.29097E+00   -0.29072E+00  7348   0.139E+01
DAV:   5    -0.243688816165E+02   -0.29716E-02   -0.29715E-02  7380   0.146E+00    0.176E+01
DAV:   6    -0.227474648425E+02    0.16214E+01   -0.15570E+01  7020   0.357E+01    0.714E+00
DAV:   7    -0.221895417578E+02    0.55792E+00   -0.25399E+00  7040   0.173E+01    0.367E+00
DAV:   8    -0.222074020284E+02   -0.17860E-01   -0.41284E-01  7104   0.411E+00    0.151E+00
DAV:   9    -0.222023785369E+02    0.50235E-02   -0.24239E-02  7332   0.141E+00    0.443E-01
DAV:  10    -0.222037256475E+02   -0.13471E-02   -0.26182E-03  7168   0.424E-01    0.176E-01
DAV:  11    -0.222039123708E+02   -0.18672E-03   -0.36386E-04  7336   0.129E-01    0.870E-02
DAV:  12    -0.222039231324E+02   -0.10762E-04   -0.52110E-05  7228   0.535E-02    0.209E-02
DAV:  13    -0.222039332133E+02   -0.10081E-04   -0.13451E-05  7164   0.261E-02    0.846E-03
DAV:  14    -0.222039346451E+02   -0.14318E-05   -0.17331E-06  5116   0.104E-02    0.333E-03
DAV:  15    -0.222039348744E+02   -0.22933E-06   -0.55605E-07  4272   0.597E-03
   1 F= -.23447659E+02 E0= -.23446951E+02  d E =-.141471E-02  mag=    -0.0000
