 vasp.6.4.3 19Mar24 (build Nov 27 2025 15:18:09) complex                         
 executed on              LinuxNV date 2026.06.04  16:41:12
 running    4 mpi-ranks, with    1 threads/rank, on    1 nodes
 distrk:  each k-point on    4 cores,    1 groups
 distr:  one band on NCORE=   1 cores,    4 groups
 OpenACC runtime initialized ...    0 GPUs detected


--------------------------------------------------------------------------------------------------------


 INCAR:
   SYSTEM = pddmc
   ENCUT = 550
   PREC = Accurate
   LASPH = .TRUE.
   ADDGRID = .TRUE.
   ISPIN = 2
   IVDW = 12
   EDIFF = 1e-06
   NELM = 200
   NELMIN = 5
   ALGO = Normal
   NCORE = 1
   LREAL = .FALSE.
   LWAVE = .FALSE.
   LCHARG = .FALSE.
   LORBIT = 11
   ISYM = 2
   IBRION = -1
   NSW = 0
   ISIF = 0
   ISMEAR = 0
   SIGMA = 0.05
   EDIFFG = -0.01

 POTCAR:    PAW_PBE Pd_pv 28Jan2005               
 POTCAR:    PAW_PBE O 08Apr2002                   
 -----------------------------------------------------------------------------
|                                                                             |
|           W    W    AA    RRRRR   N    N  II  N    N   GGGG   !!!           |
|           W    W   A  A   R    R  NN   N  II  NN   N  G    G  !!!           |
|           W    W  A    A  R    R  N N  N  II  N N  N  G       !!!           |
|           W WW W  AAAAAA  RRRRR   N  N N  II  N  N N  G  GGG   !            |
|           WW  WW  A    A  R   R   N   NN  II  N   NN  G    G                |
|           W    W  A    A  R    R  N    N  II  N    N   GGGG   !!!           |
|                                                                             |
|     You use a magnetic or noncollinear calculation, but did not specify     |
|     the initial magnetic moment with the MAGMOM tag. Note that a            |
|     default of 1 will be used for all atoms. This ferromagnetic setup       |
|     may break the symmetry of the crystal, in particular it may rule        |
|     out finding an antiferromagnetic solution. Thence, we recommend         |
|     setting the initial magnetic moment manually or verifying carefully     |
|     that this magnetic setup is desired.                                    |
|                                                                             |
 -----------------------------------------------------------------------------

 POTCAR:    PAW_PBE Pd_pv 28Jan2005               
   SHA256 =  3ce661545bbde58da9a95410dea32907db2844916708bcd35bbe03ee66324d7f Pd_pv/POTCAR          
   COPYR  = (c) Copyright 28Jan2005 Georg Kresse                                                    
   COPYR  = This file is part of the software VASP. Any use, copying, and all other rights are regul
   COPYR  = If you do not have a valid VASP license, you may not use, copy or distribute this file. 
   VRHFIN =Pd: 4p5s4d                                                                               
   LEXCH  = PE                                                                                      
   EATOM  =  2621.5550 eV,  192.6789 Ry                                                             
                                                                                                    
   TITEL  = PAW_PBE Pd_pv 28Jan2005                                                                 
   LULTRA =        F    use ultrasoft PP ?                                                          
   IUNSCR =        1    unscreen: 0-lin 1-nonlin 2-no                                               
   RPACOR =    2.250    partial core radius                                                         
   POMASS =  106.420; ZVAL   =   16.000    mass and valenz                                          
   RCORE  =    2.400    outmost cutoff radius                                                       
   RWIGS  =    2.300; RWIGS  =    1.217    wigner-seitz radius (au A)                               
   ENMAX  =  250.925; ENMIN  =  188.194 eV                                                          
   ICORE  =        3    local potential                                                             
   LCOR   =        T    correct aug charges                                                         
   LPAW   =        T    paw PP                                                                      
   EAUG   =  473.067                                                                                
   DEXC   =    0.000                                                                                
   RMAX   =    2.449    core radius for proj-oper                                                   
   RAUG   =    1.300    factor for augmentation sphere                                              
   RDEP   =    2.405    radius for radial grids                                                     
   RDEPT  =    1.966    core radius for aug-charge                                                  
                                                                                                    
   Atomic configuration                                                                             
   11 entries                                                                                       
     n  l   j            E        occ.                                                              
     1  0  0.50    -24164.6632   2.0000                                                             
     2  0  0.50     -3530.9218   2.0000                                                             
     2  1  1.50     -3165.6822   6.0000                                                             
     3  0  0.50      -639.4578   2.0000                                                             
     3  1  1.50      -519.4532   6.0000                                                             
     3  2  2.50      -328.9758  10.0000                                                             
     4  0  0.50       -88.7014   2.0000                                                             
     4  1  1.50       -54.4541   6.0000                                                             
     4  2  2.50        -6.6878   9.0000                                                             
     5  0  0.50        -4.3543   1.0000                                                             
     4  3  2.50        -1.3606   0.0000                                                             
   Description                                                                                      
     l       E           TYP  RCUT    TYP  RCUT                                                     
     1    -54.4540524     23  2.100                                                                 
     1      4.0817478     23  2.100                                                                 
     2     -6.6878326     23  2.400                                                                 
     2     -4.0817478     23  2.400                                                                 
     0     -4.3542962     23  2.400                                                                 
     0     13.6058260     23  2.400                                                                 
     3     -5.4423304     23  2.400                                                                 
  local pseudopotential read in
  partial core-charges read in
  partial kinetic energy density read in
  atomic valenz-charges read in
  non local Contribution for L=            1  read in
    real space projection operators read in
  non local Contribution for L=            1  read in
    real space projection operators read in
  non local Contribution for L=            2  read in
    real space projection operators read in
  non local Contribution for L=            2  read in
    real space projection operators read in
  non local Contribution for L=            0  read in
    real space projection operators read in
  non local Contribution for L=            0  read in
    real space projection operators read in
    PAW grid and wavefunctions read in
 
   number of l-projection  operators is LMAX  =            6
   number of lm-projection operators is LMMAX =           18
 
 POTCAR:    PAW_PBE O 08Apr2002                   
   SHA256 =  818f92134a0a090dccd8ba1447fa70422a3b330e708bb4f08108d8ae51209ddf O/POTCAR              
   COPYR  = (c) Copyright 08Apr2002 Georg Kresse                                                    
   COPYR  = This file is part of the software VASP. Any use, copying, and all other rights are regul
   COPYR  = If you do not have a valid VASP license, you may not use, copy or distribute this file. 
   VRHFIN =O: s2p4                                                                                  
   LEXCH  = PE                                                                                      
   EATOM  =   432.3788 eV,   31.7789 Ry                                                             
                                                                                                    
   TITEL  = PAW_PBE O 08Apr2002                                                                     
   LULTRA =        F    use ultrasoft PP ?                                                          
   IUNSCR =        1    unscreen: 0-lin 1-nonlin 2-no                                               
   RPACOR =    1.200    partial core radius                                                         
   POMASS =   16.000; ZVAL   =    6.000    mass and valenz                                          
   RCORE  =    1.520    outmost cutoff radius                                                       
   RWIGS  =    1.550; RWIGS  =    0.820    wigner-seitz radius (au A)                               
   ENMAX  =  400.000; ENMIN  =  300.000 eV                                                          
   ICORE  =        2    local potential                                                             
   LCOR   =        T    correct aug charges                                                         
   LPAW   =        T    paw PP                                                                      
   EAUG   =  605.392                                                                                
   DEXC   =    0.000                                                                                
   RMAX   =    1.553    core radius for proj-oper                                                   
   RAUG   =    1.300    factor for augmentation sphere                                              
   RDEP   =    1.550    radius for radial grids                                                     
   RDEPT  =    1.329    core radius for aug-charge                                                  
                                                                                                    
   Atomic configuration                                                                             
    4 entries                                                                                       
     n  l   j            E        occ.                                                              
     1  0  0.50      -514.6923   2.0000                                                             
     2  0  0.50       -23.9615   2.0000                                                             
     2  1  0.50        -9.0305   4.0000                                                             
     3  2  1.50        -9.5241   0.0000                                                             
   Description                                                                                      
     l       E           TYP  RCUT    TYP  RCUT                                                     
     0    -23.9615318     23  1.200                                                                 
     0     -9.5240782     23  1.200                                                                 
     1     -9.0304911     23  1.520                                                                 
     1      8.1634956     23  1.520                                                                 
     2     -9.5240782      7  1.500                                                                 
  local pseudopotential read in
  partial core-charges read in
  partial kinetic energy density read in
  kinetic energy density of atom read in
  atomic valenz-charges read in
  non local Contribution for L=            0  read in
    real space projection operators read in
  non local Contribution for L=            0  read in
    real space projection operators read in
  non local Contribution for L=            1  read in
    real space projection operators read in
  non local Contribution for L=            1  read in
    real space projection operators read in
    PAW grid and wavefunctions read in
 
   number of l-projection  operators is LMAX  =            4
   number of lm-projection operators is LMMAX =            8
 
  PAW_PBE Pd_pv 28Jan2005               :
 energy of atom  1       EATOM=-2621.5550
 kinetic energy error for atom=    0.0074 (will be added to EATOM!!)
  PAW_PBE O 08Apr2002                   :
 energy of atom  2       EATOM= -432.3788
 kinetic energy error for atom=    0.0194 (will be added to EATOM!!)
 
 
 POSCAR: Pd O
  positions in cartesian coordinates
  No initial velocities read in
 IVDW         = 12
 VDW_S6       =    1.0000
 VDW_S8       =    0.7875
 VDW_A1       =    0.4289
 VDW_A2       =    4.4407
 VDW_RADIUS   =   50.2022 A
 VDW_CNRADIUS =   21.1671 A


 exchange-correlation table for PE
   RHO(1)=    0.500       N(1)  =     2000
   RHO(2)=  100.500       N(2)  =     4000
 


--------------------------------------------------------------------------------------------------------


 ion  position               nearest neighbor table
   1  0.500  0.000  0.500-   3 2.03   4 2.03   3 2.03   4 2.03
   2  0.000  0.500  0.000-   3 2.03   4 2.03   3 2.03   4 2.03
   3  0.000  0.000  0.750-   1 2.03   2 2.03   2 2.03   1 2.03
   4  0.000  0.000  0.250-   1 2.03   2 2.03   2 2.03   1 2.03
 
  LATTYP: Found a simple tetragonal cell.
 ALAT       =     3.0536041100
 C/A-ratio  =     1.7589892457
  
  Lattice vectors:
  
 A1 = (   3.0536041100,   0.0000000000,   0.0000000000)
 A2 = (   0.0000000000,   3.0536041100,   0.0000000000)
 A3 = (   0.0000000000,   0.0000000000,   5.3712567900)


Analysis of symmetry for initial positions (statically):
=====================================================================
 Subroutine PRICEL returns:
 Original cell was already a primitive cell.
 

 Routine SETGRP: Setting up the symmetry group for a 
 simple tetragonal supercell.


 Subroutine GETGRP returns: Found 16 space group operations
 (whereof  8 operations were pure point group operations)
 out of a pool of 16 trial point group operations.


The static configuration has the point symmetry D_2h.
 The point group associated with its full space group is D_4h.


Analysis of symmetry for dynamics (positions and initial velocities):
=====================================================================
 Subroutine PRICEL returns:
 Original cell was already a primitive cell.
 

 Routine SETGRP: Setting up the symmetry group for a 
 simple tetragonal supercell.


 Subroutine GETGRP returns: Found 16 space group operations
 (whereof  8 operations were pure point group operations)
 out of a pool of 16 trial point group operations.


The dynamic configuration has the point symmetry D_2h.
 The point group associated with its full space group is D_4h.


Analysis of structural, dynamic, and magnetic symmetry:
=====================================================================
 Subroutine PRICEL returns:
 Original cell was already a primitive cell.
 

 Routine SETGRP: Setting up the symmetry group for a 
 simple tetragonal supercell.


 Subroutine GETGRP returns: Found 16 space group operations
 (whereof  8 operations were pure point group operations)
 out of a pool of 16 trial point group operations.


The overall configuration has the point symmetry D_2h.
 The point group associated with its full space group is D_4h.


 Subroutine INISYM returns: Found 16 space group operations
 (whereof  8 operations are pure point group operations),
 and found     1 'primitive' translations


----------------------------------------------------------------------------------------

                                     Primitive cell                                     

  volume of cell :      50.0843

  direct lattice vectors                    reciprocal lattice vectors
     3.053604110  0.000000000  0.000000000     0.327481875 -0.000000000  0.000000000
     0.000000000  3.053604110  0.000000000     0.000000000  0.327481875  0.000000000
     0.000000000  0.000000000  5.371256790    -0.000000000 -0.000000000  0.186176167

  length of vectors
     3.053604110  3.053604110  5.371256790     0.327481875  0.327481875  0.186176167

  position of ions in fractional coordinates (direct lattice)
     0.500000000  0.000000000  0.500000000
     0.000000000  0.500000000  0.000000000
     0.000000000  0.000000000  0.750000000
     0.000000000  0.000000000  0.250000000

  ion indices of the primitive-cell ions
   primitive index   ion index
                 1           1
                 2           2
                 3           3
                 4           4

----------------------------------------------------------------------------------------

 
 
 KPOINTS: Automatic mesh                          

Automatic generation of k-mesh.
 Grid dimensions read from file:
 generate k-points for:    8    8    6

 Generating k-lattice:

  Cartesian coordinates                     Fractional coordinates (reciprocal lattice)
     0.040935234 -0.000000000  0.000000000     0.125000000  0.000000000  0.000000000
     0.000000000  0.040935234  0.000000000     0.000000000  0.125000000  0.000000000
    -0.000000000 -0.000000000  0.031029361     0.000000000  0.000000000  0.166666667

  Length of vectors
     0.040935234  0.040935234  0.031029361

  Shift w.r.t. Gamma in fractional coordinates (k-lattice)
     0.000000000  0.000000000  0.000000000

 
 Subroutine IBZKPT returns following result:
 ===========================================
 
 Found     60 irreducible k-points:
 
 Following reciprocal coordinates:
            Coordinates               Weight
  0.000000  0.000000  0.000000      1.000000
  0.125000  0.000000  0.000000      4.000000
  0.250000  0.000000  0.000000      4.000000
  0.375000  0.000000  0.000000      4.000000
  0.500000  0.000000  0.000000      2.000000
  0.125000  0.125000  0.000000      4.000000
  0.250000  0.125000  0.000000      8.000000
  0.375000  0.125000  0.000000      8.000000
  0.500000  0.125000  0.000000      4.000000
  0.250000  0.250000  0.000000      4.000000
  0.375000  0.250000  0.000000      8.000000
  0.500000  0.250000  0.000000      4.000000
  0.375000  0.375000  0.000000      4.000000
  0.500000  0.375000  0.000000      4.000000
  0.500000  0.500000  0.000000      1.000000
  0.000000  0.000000  0.166667      2.000000
  0.125000  0.000000  0.166667      8.000000
  0.250000  0.000000  0.166667      8.000000
  0.375000  0.000000  0.166667      8.000000
  0.500000  0.000000  0.166667      4.000000
  0.125000  0.125000  0.166667      8.000000
  0.250000  0.125000  0.166667     16.000000
  0.375000  0.125000  0.166667     16.000000
  0.500000  0.125000  0.166667      8.000000
  0.250000  0.250000  0.166667      8.000000
  0.375000  0.250000  0.166667     16.000000
  0.500000  0.250000  0.166667      8.000000
  0.375000  0.375000  0.166667      8.000000
  0.500000  0.375000  0.166667      8.000000
  0.500000  0.500000  0.166667      2.000000
  0.000000  0.000000  0.333333      2.000000
  0.125000  0.000000  0.333333      8.000000
  0.250000  0.000000  0.333333      8.000000
  0.375000  0.000000  0.333333      8.000000
  0.500000  0.000000  0.333333      4.000000
  0.125000  0.125000  0.333333      8.000000
  0.250000  0.125000  0.333333     16.000000
  0.375000  0.125000  0.333333     16.000000
  0.500000  0.125000  0.333333      8.000000
  0.250000  0.250000  0.333333      8.000000
  0.375000  0.250000  0.333333     16.000000
  0.500000  0.250000  0.333333      8.000000
  0.375000  0.375000  0.333333      8.000000
  0.500000  0.375000  0.333333      8.000000
  0.500000  0.500000  0.333333      2.000000
  0.000000  0.000000  0.500000      1.000000
  0.125000  0.000000  0.500000      4.000000
  0.250000  0.000000  0.500000      4.000000
  0.375000  0.000000  0.500000      4.000000
  0.500000  0.000000  0.500000      2.000000
  0.125000  0.125000  0.500000      4.000000
  0.250000  0.125000  0.500000      8.000000
  0.375000  0.125000  0.500000      8.000000
  0.500000  0.125000  0.500000      4.000000
  0.250000  0.250000  0.500000      4.000000
  0.375000  0.250000  0.500000      8.000000
  0.500000  0.250000  0.500000      4.000000
  0.375000  0.375000  0.500000      4.000000
  0.500000  0.375000  0.500000      4.000000
  0.500000  0.500000  0.500000      1.000000
 
 Following cartesian coordinates:
            Coordinates               Weight
  0.000000  0.000000  0.000000      1.000000
  0.040935  0.000000  0.000000      4.000000
  0.081870  0.000000  0.000000      4.000000
  0.122806  0.000000  0.000000      4.000000
  0.163741  0.000000  0.000000      2.000000
  0.040935  0.040935  0.000000      4.000000
  0.081870  0.040935  0.000000      8.000000
  0.122806  0.040935  0.000000      8.000000
  0.163741  0.040935  0.000000      4.000000
  0.081870  0.081870  0.000000      4.000000
  0.122806  0.081870  0.000000      8.000000
  0.163741  0.081870  0.000000      4.000000
  0.122806  0.122806  0.000000      4.000000
  0.163741  0.122806  0.000000      4.000000
  0.163741  0.163741  0.000000      1.000000
  0.000000  0.000000  0.031029      2.000000
  0.040935  0.000000  0.031029      8.000000
  0.081870  0.000000  0.031029      8.000000
  0.122806  0.000000  0.031029      8.000000
  0.163741  0.000000  0.031029      4.000000
  0.040935  0.040935  0.031029      8.000000
  0.081870  0.040935  0.031029     16.000000
  0.122806  0.040935  0.031029     16.000000
  0.163741  0.040935  0.031029      8.000000
  0.081870  0.081870  0.031029      8.000000
  0.122806  0.081870  0.031029     16.000000
  0.163741  0.081870  0.031029      8.000000
  0.122806  0.122806  0.031029      8.000000
  0.163741  0.122806  0.031029      8.000000
  0.163741  0.163741  0.031029      2.000000
  0.000000  0.000000  0.062059      2.000000
  0.040935  0.000000  0.062059      8.000000
  0.081870  0.000000  0.062059      8.000000
  0.122806  0.000000  0.062059      8.000000
  0.163741  0.000000  0.062059      4.000000
  0.040935  0.040935  0.062059      8.000000
  0.081870  0.040935  0.062059     16.000000
  0.122806  0.040935  0.062059     16.000000
  0.163741  0.040935  0.062059      8.000000
  0.081870  0.081870  0.062059      8.000000
  0.122806  0.081870  0.062059     16.000000
  0.163741  0.081870  0.062059      8.000000
  0.122806  0.122806  0.062059      8.000000
  0.163741  0.122806  0.062059      8.000000
  0.163741  0.163741  0.062059      2.000000
  0.000000  0.000000  0.093088      1.000000
  0.040935  0.000000  0.093088      4.000000
  0.081870  0.000000  0.093088      4.000000
  0.122806  0.000000  0.093088      4.000000
  0.163741  0.000000  0.093088      2.000000
  0.040935  0.040935  0.093088      4.000000
  0.081870  0.040935  0.093088      8.000000
  0.122806  0.040935  0.093088      8.000000
  0.163741  0.040935  0.093088      4.000000
  0.081870  0.081870  0.093088      4.000000
  0.122806  0.081870  0.093088      8.000000
  0.163741  0.081870  0.093088      4.000000
  0.122806  0.122806  0.093088      4.000000
  0.163741  0.122806  0.093088      4.000000
  0.163741  0.163741  0.093088      1.000000
 


--------------------------------------------------------------------------------------------------------




 Dimension of arrays:
   k-points           NKPTS =     60   k-points in BZ     NKDIM =     60   number of bands    NBANDS=     28
   number of dos      NEDOS =    301   number of ions     NIONS =      4
   non local maximal  LDIM  =      6   non local SUM 2l+1 LMDIM =     18
   total plane-waves  NPLWV =  24192
   max r-space proj   IRMAX =      1   max aug-charges    IRDMAX= 154883
   dimension x,y,z NGX =    24 NGY =   24 NGZ =   42
   dimension x,y,z NGXF=    48 NGYF=   48 NGZF=   84
   support grid    NGXF=    96 NGYF=   96 NGZF=  168
   ions per type =               2   2
   NGX,Y,Z   is equivalent  to a cutoff of  13.07, 13.07, 13.00 a.u.
   NGXF,Y,Z  is equivalent  to a cutoff of  26.13, 26.13, 26.00 a.u.

 SYSTEM =  pddmc                                   
 POSCAR =  Pd O                                    

 Startparameter for this run:
   NWRITE =      2    write-flag & timer
   PREC   = accura    normal or accurate (medium, high low for compatibility)
   ISTART =      0    job   : 0-new  1-cont  2-samecut
   ICHARG =      2    charge: 1-file 2-atom 10-const
   ISPIN  =      2    spin polarized calculation?
   LNONCOLLINEAR =      F non collinear calculations
   LSORBIT =      F    spin-orbit coupling
   INIWAV =      1    electr: 0-lowe 1-rand  2-diag
   LASPH  =      T    aspherical Exc in radial PAW
 Electronic Relaxation 1
   ENCUT  =  550.0 eV  40.42 Ry    6.36 a.u.   5.84  5.84 10.27*2*pi/ulx,y,z
   ENINI  =  550.0     initial cutoff
   ENAUG  =  605.4 eV  augmentation charge cutoff
   NELM   =    200;   NELMIN=  5; NELMDL= -5     # of ELM steps 
   EDIFF  = 0.1E-05   stopping-criterion for ELM
   LREAL  =      F    real-space projection
   NLSPLINE    = F    spline interpolate recip. space projectors
   LCOMPAT=      F    compatible to vasp.4.4
   GGA_COMPAT  = T    GGA compatible to vasp.4.4-vasp.4.6
   LMAXPAW     = -100 max onsite density
   LMAXMIX     =    2 max onsite mixed and CHGCAR
   VOSKOWN=      0    Vosko Wilk Nusair interpolation
   ROPT   =    0.00000   0.00000
 Ionic relaxation
   EDIFFG = -.1E-01   stopping-criterion for IOM
   NSW    =      0    number of steps for IOM
   NBLOCK =      1;   KBLOCK =      1    inner block; outer block 
   IBRION =     -1    ionic relax: 0-MD 1-quasi-New 2-CG
   NFREE  =      0    steps in history (QN), initial steepest desc. (CG)
   ISIF   =      0    stress and relaxation
   IWAVPR =     10    prediction:  0-non 1-charg 2-wave 3-comb
   ISYM   =      2    0-nonsym 1-usesym 2-fastsym
   LCORR  =      T    Harris-Foulkes like correction to forces

   POTIM  = 0.5000    time-step for ionic-motion
   TEIN   =    0.0    initial temperature
   TEBEG  =    0.0;   TEEND  =   0.0 temperature during run
   SMASS  =  -3.00    Nose mass-parameter (am)
   estimated Nose-frequenzy (Omega)   =  0.10E-29 period in steps = 0.13E+47 mass=  -0.213E-27a.u.
   SCALEE = 1.0000    scale energy and forces
   NPACO  =    256;   APACO  = 10.0  distance and # of slots for P.C.
   PSTRESS=    0.0 pullay stress

  Mass of Ions in am
   POMASS = 106.42 16.00
  Ionic Valenz
   ZVAL   =  16.00  6.00
  Atomic Wigner-Seitz radii
   RWIGS  =  -1.00 -1.00
  virtual crystal weights 
   VCA    =   1.00  1.00
   NELECT =      44.0000    total number of electrons
   NUPDOWN=      -1.0000    fix difference up-down

 DOS related values:
   EMIN   =  10.00;   EMAX   =-10.00  energy-range for DOS
   EFERMI =   0.00;   METHOD = LEGACY      
   ISMEAR =     0;   SIGMA  =   0.05  broadening in eV -4-tet -1-fermi 0-gaus

 Electronic relaxation 2 (details)
   IALGO  =     38    algorithm
   LDIAG  =      T    sub-space diagonalisation (order eigenvalues)
   LSUBROT=      F    optimize rotation matrix (better conditioning)
   TURBO    =      0    0=normal 1=particle mesh
   IRESTART =      0    0=no restart 2=restart with 2 vectors
   NREBOOT  =      0    no. of reboots
   NMIN     =      0    reboot dimension
   EREF     =   0.00    reference energy to select bands
   IMIX   =      4    mixing-type and parameters
     AMIX     =   0.40;   BMIX     =  1.00
     AMIX_MAG =   1.60;   BMIX_MAG =  1.00
     AMIN     =   0.10
     WC   =   100.;   INIMIX=   1;  MIXPRE=   1;  MAXMIX= -45

 Intra band minimization:
   WEIMIN = 0.0000     energy-eigenvalue tresh-hold
   EBREAK =  0.89E-08  absolut break condition
   DEPER  =   0.30     relativ break condition  

   TIME   =   0.40     timestep for ELM

  volume/ion in A,a.u.               =      12.52        84.50
  Fermi-wavevector in a.u.,A,eV,Ry     =   1.567925  2.962948 33.448407  2.458389
  Thomas-Fermi vector in A             =   2.670032
 
 Write flags
   LWAVE        =      F    write WAVECAR
   LDOWNSAMPLE  =      F    k-point downsampling of WAVECAR
   LCHARG       =      F    write CHGCAR
   LVTOT        =      F    write LOCPOT, total local potential
   LVHAR        =      F    write LOCPOT, Hartree potential only
   WRT_POTENTIAL= false  ! write potential to hdf5 file
   LELF         =      F    write electronic localiz. function (ELF)
   LORBIT       =     11    0 simple, 1 ext, 2 COOP (PROOUT), +10 PAW based schemes


 Dipole corrections
   LMONO      =      F    monopole corrections only (constant potential shift)
   LDIPOL     =      F    correct potential (dipole corrections)
   IDIPOL     =      0    1-x, 2-y, 3-z, 4-all directions 
   EPSILON    =  1.0000000 bulk dielectric constant
   LVACPOTAV  =      F  vacuum potentials using an averaging scheme for the charge density
   VACPOTFLAT =  0.1000000 required flatness to determine vacuum potential
 Exchange correlation treatment:
   GGA     = PE    functional components
   XC_C    = 1    coefficients multiplying the functional components
   LIBXC   =     F    Libxc                    
   VOSKOWN =     0    Vosko Wilk Nusair interpolation
   LHFCALC =     F    Hartree Fock is set to
   LHFONE  =     F    Hartree Fock one center treatment
   AEXX    =    0.0000 exact exchange contribution

 Parameters of functionals:
   PE:
     No parameter
 
 Van der Waals corrections
   IVDW    =    12    specifies the selected vdW correction

 Linear response parameters
   LEPSILON=     F    determine dielectric tensor
   LRPA    =     F    only Hartree local field effects (RPA)
   LNABLA  =     F    use nabla operator in PAW spheres
   LVEL    =     F    velocity operator in full k-point grid
   CSHIFT  =0.1000    complex shift for real part using Kramers Kronig
   OMEGAMAX=  -1.0    maximum frequency
   DEG_THRESHOLD= 0.2000000E-02 threshold for treating states as degnerate
   RTIME   =   -0.100 relaxation time in fs
  (WPLASMAI=    0.000 imaginary part of plasma frequency in eV, 0.658/RTIME)
   DFIELD  = 0.0000000 0.0000000 0.0000000 field for delta impulse in time
 
  Optional k-point grid parameters
   LKPOINTS_OPT  =     F    use optional k-point grid
   KPOINTS_OPT_MODE=     1    mode for optional k-point grid
 
 Orbital magnetization related:
   ORBITALMAG=     F  switch on orbital magnetization
   LCHIMAG   =     F  perturbation theory with respect to B field
   DQ        =  0.001000  dq finite difference perturbation B field
   LLRAUG    =     F  two centre corrections for induced B field
   LBONE     =     F  B-component reconstruction in AE one-centre
   LVGVCALC  =     T  calculate vGv susceptibility
   LVGVAPPL  =     F  apply vGv susceptibility instead of pGv for G=0

 Random number generation:
   RANDOM_GENERATOR = DEFAULT
   PCG_SEED         = not used


--------------------------------------------------------------------------------------------------------


 Static calculation
 charge density and potential will be updated during run
 spin polarized calculation
 Variant of blocked Davidson
 Davidson routine will perform the subspace rotation
 perform sub-space diagonalisation
    after iterative eigenvector-optimisation
 modified Broyden-mixing scheme, WC =      100.0
 initial mixing is a Kerker type mixing with AMIX =  0.4000 and BMIX =      1.0000
 Hartree-type preconditioning will be used
 using additional bands             6
 reciprocal scheme for non local part
 use partial core corrections
 calculate Harris-corrections to forces 
   (improved forces if not selfconsistent)
 use gradient corrections 
 use of overlap-Matrix (Vanderbilt PP)
 Gauss-broadening in eV      SIGMA  =   0.05


--------------------------------------------------------------------------------------------------------


  energy-cutoff  :      550.00
  volume of cell :       50.08
      direct lattice vectors                 reciprocal lattice vectors
     3.053604110  0.000000000  0.000000000     0.327481875 -0.000000000  0.000000000
     0.000000000  3.053604110  0.000000000     0.000000000  0.327481875  0.000000000
     0.000000000  0.000000000  5.371256790    -0.000000000 -0.000000000  0.186176167

  length of vectors
     3.053604110  3.053604110  5.371256790     0.327481875  0.327481875  0.186176167


 
 k-points in units of 2pi/SCALE and weight: Automatic mesh                          
   0.00000000  0.00000000  0.00000000       0.003
   0.04093523  0.00000000  0.00000000       0.010
   0.08187047  0.00000000  0.00000000       0.010
   0.12280570  0.00000000  0.00000000       0.010
   0.16374094  0.00000000  0.00000000       0.005
   0.04093523  0.04093523  0.00000000       0.010
   0.08187047  0.04093523  0.00000000       0.021
   0.12280570  0.04093523  0.00000000       0.021
   0.16374094  0.04093523  0.00000000       0.010
   0.08187047  0.08187047  0.00000000       0.010
   0.12280570  0.08187047  0.00000000       0.021
   0.16374094  0.08187047  0.00000000       0.010
   0.12280570  0.12280570  0.00000000       0.010
   0.16374094  0.12280570  0.00000000       0.010
   0.16374094  0.16374094  0.00000000       0.003
   0.00000000  0.00000000  0.03102936       0.005
   0.04093523  0.00000000  0.03102936       0.021
   0.08187047  0.00000000  0.03102936       0.021
   0.12280570  0.00000000  0.03102936       0.021
   0.16374094  0.00000000  0.03102936       0.010
   0.04093523  0.04093523  0.03102936       0.021
   0.08187047  0.04093523  0.03102936       0.042
   0.12280570  0.04093523  0.03102936       0.042
   0.16374094  0.04093523  0.03102936       0.021
   0.08187047  0.08187047  0.03102936       0.021
   0.12280570  0.08187047  0.03102936       0.042
   0.16374094  0.08187047  0.03102936       0.021
   0.12280570  0.12280570  0.03102936       0.021
   0.16374094  0.12280570  0.03102936       0.021
   0.16374094  0.16374094  0.03102936       0.005
   0.00000000  0.00000000  0.06205872       0.005
   0.04093523  0.00000000  0.06205872       0.021
   0.08187047  0.00000000  0.06205872       0.021
   0.12280570  0.00000000  0.06205872       0.021
   0.16374094  0.00000000  0.06205872       0.010
   0.04093523  0.04093523  0.06205872       0.021
   0.08187047  0.04093523  0.06205872       0.042
   0.12280570  0.04093523  0.06205872       0.042
   0.16374094  0.04093523  0.06205872       0.021
   0.08187047  0.08187047  0.06205872       0.021
   0.12280570  0.08187047  0.06205872       0.042
   0.16374094  0.08187047  0.06205872       0.021
   0.12280570  0.12280570  0.06205872       0.021
   0.16374094  0.12280570  0.06205872       0.021
   0.16374094  0.16374094  0.06205872       0.005
   0.00000000  0.00000000  0.09308808       0.003
   0.04093523  0.00000000  0.09308808       0.010
   0.08187047  0.00000000  0.09308808       0.010
   0.12280570  0.00000000  0.09308808       0.010
   0.16374094  0.00000000  0.09308808       0.005
   0.04093523  0.04093523  0.09308808       0.010
   0.08187047  0.04093523  0.09308808       0.021
   0.12280570  0.04093523  0.09308808       0.021
   0.16374094  0.04093523  0.09308808       0.010
   0.08187047  0.08187047  0.09308808       0.010
   0.12280570  0.08187047  0.09308808       0.021
   0.16374094  0.08187047  0.09308808       0.010
   0.12280570  0.12280570  0.09308808       0.010
   0.16374094  0.12280570  0.09308808       0.010
   0.16374094  0.16374094  0.09308808       0.003
 
 k-points in reciprocal lattice and weights: Automatic mesh                          
   0.00000000  0.00000000  0.00000000       0.003
   0.12500000  0.00000000  0.00000000       0.010
   0.25000000  0.00000000  0.00000000       0.010
   0.37500000  0.00000000  0.00000000       0.010
   0.50000000  0.00000000  0.00000000       0.005
   0.12500000  0.12500000  0.00000000       0.010
   0.25000000  0.12500000  0.00000000       0.021
   0.37500000  0.12500000  0.00000000       0.021
   0.50000000  0.12500000  0.00000000       0.010
   0.25000000  0.25000000  0.00000000       0.010
   0.37500000  0.25000000  0.00000000       0.021
   0.50000000  0.25000000  0.00000000       0.010
   0.37500000  0.37500000  0.00000000       0.010
   0.50000000  0.37500000  0.00000000       0.010
   0.50000000  0.50000000  0.00000000       0.003
   0.00000000  0.00000000  0.16666667       0.005
   0.12500000  0.00000000  0.16666667       0.021
   0.25000000  0.00000000  0.16666667       0.021
   0.37500000  0.00000000  0.16666667       0.021
   0.50000000  0.00000000  0.16666667       0.010
   0.12500000  0.12500000  0.16666667       0.021
   0.25000000  0.12500000  0.16666667       0.042
   0.37500000  0.12500000  0.16666667       0.042
   0.50000000  0.12500000  0.16666667       0.021
   0.25000000  0.25000000  0.16666667       0.021
   0.37500000  0.25000000  0.16666667       0.042
   0.50000000  0.25000000  0.16666667       0.021
   0.37500000  0.37500000  0.16666667       0.021
   0.50000000  0.37500000  0.16666667       0.021
   0.50000000  0.50000000  0.16666667       0.005
   0.00000000  0.00000000  0.33333333       0.005
   0.12500000  0.00000000  0.33333333       0.021
   0.25000000  0.00000000  0.33333333       0.021
   0.37500000  0.00000000  0.33333333       0.021
   0.50000000  0.00000000  0.33333333       0.010
   0.12500000  0.12500000  0.33333333       0.021
   0.25000000  0.12500000  0.33333333       0.042
   0.37500000  0.12500000  0.33333333       0.042
   0.50000000  0.12500000  0.33333333       0.021
   0.25000000  0.25000000  0.33333333       0.021
   0.37500000  0.25000000  0.33333333       0.042
   0.50000000  0.25000000  0.33333333       0.021
   0.37500000  0.37500000  0.33333333       0.021
   0.50000000  0.37500000  0.33333333       0.021
   0.50000000  0.50000000  0.33333333       0.005
   0.00000000  0.00000000  0.50000000       0.003
   0.12500000  0.00000000  0.50000000       0.010
   0.25000000  0.00000000  0.50000000       0.010
   0.37500000  0.00000000  0.50000000       0.010
   0.50000000  0.00000000  0.50000000       0.005
   0.12500000  0.12500000  0.50000000       0.010
   0.25000000  0.12500000  0.50000000       0.021
   0.37500000  0.12500000  0.50000000       0.021
   0.50000000  0.12500000  0.50000000       0.010
   0.25000000  0.25000000  0.50000000       0.010
   0.37500000  0.25000000  0.50000000       0.021
   0.50000000  0.25000000  0.50000000       0.010
   0.37500000  0.37500000  0.50000000       0.010
   0.50000000  0.37500000  0.50000000       0.010
   0.50000000  0.50000000  0.50000000       0.003
 
 position of ions in fractional coordinates (direct lattice) 
   0.50000000  0.00000000  0.50000000
   0.00000000  0.50000000  0.00000000
   0.00000000  0.00000000  0.75000000
   0.00000000  0.00000000  0.25000000
 
 position of ions in cartesian coordinates  (Angst):
   1.52680206  0.00000000  2.68562840
   0.00000000  1.52680206  0.00000000
   0.00000000  0.00000000  4.02844259
   0.00000000  0.00000000  1.34281420
 


--------------------------------------------------------------------------------------------------------


 k-point     1 :   0.0000 0.0000 0.0000  plane waves:    1465
 k-point     2 :   0.1250 0.0000 0.0000  plane waves:    1467
 k-point     3 :   0.2500 0.0000 0.0000  plane waves:    1462
 k-point     4 :   0.3750 0.0000 0.0000  plane waves:    1478
 k-point     5 :   0.5000 0.0000 0.0000  plane waves:    1476
 k-point     6 :   0.1250 0.1250 0.0000  plane waves:    1457
 k-point     7 :   0.2500 0.1250 0.0000  plane waves:    1458
 k-point     8 :   0.3750 0.1250 0.0000  plane waves:    1470
 k-point     9 :   0.5000 0.1250 0.0000  plane waves:    1478
 k-point    10 :   0.2500 0.2500 0.0000  plane waves:    1470
 k-point    11 :   0.3750 0.2500 0.0000  plane waves:    1465
 k-point    12 :   0.5000 0.2500 0.0000  plane waves:    1468
 k-point    13 :   0.3750 0.3750 0.0000  plane waves:    1464
 k-point    14 :   0.5000 0.3750 0.0000  plane waves:    1480
 k-point    15 :   0.5000 0.5000 0.0000  plane waves:    1472
 k-point    16 :   0.0000 0.0000 0.1667  plane waves:    1457
 k-point    17 :   0.1250 0.0000 0.1667  plane waves:    1459
 k-point    18 :   0.2500 0.0000 0.1667  plane waves:    1453
 k-point    19 :   0.3750 0.0000 0.1667  plane waves:    1474
 k-point    20 :   0.5000 0.0000 0.1667  plane waves:    1470
 k-point    21 :   0.1250 0.1250 0.1667  plane waves:    1456
 k-point    22 :   0.2500 0.1250 0.1667  plane waves:    1465
 k-point    23 :   0.3750 0.1250 0.1667  plane waves:    1469
 k-point    24 :   0.5000 0.1250 0.1667  plane waves:    1466
 k-point    25 :   0.2500 0.2500 0.1667  plane waves:    1467
 k-point    26 :   0.3750 0.2500 0.1667  plane waves:    1465
 k-point    27 :   0.5000 0.2500 0.1667  plane waves:    1472
 k-point    28 :   0.3750 0.3750 0.1667  plane waves:    1478
 k-point    29 :   0.5000 0.3750 0.1667  plane waves:    1480
 k-point    30 :   0.5000 0.5000 0.1667  plane waves:    1512
 k-point    31 :   0.0000 0.0000 0.3333  plane waves:    1440
 k-point    32 :   0.1250 0.0000 0.3333  plane waves:    1462
 k-point    33 :   0.2500 0.0000 0.3333  plane waves:    1469
 k-point    34 :   0.3750 0.0000 0.3333  plane waves:    1468
 k-point    35 :   0.5000 0.0000 0.3333  plane waves:    1452
 k-point    36 :   0.1250 0.1250 0.3333  plane waves:    1461
 k-point    37 :   0.2500 0.1250 0.3333  plane waves:    1466
 k-point    38 :   0.3750 0.1250 0.3333  plane waves:    1462
 k-point    39 :   0.5000 0.1250 0.3333  plane waves:    1460
 k-point    40 :   0.2500 0.2500 0.3333  plane waves:    1469
 k-point    41 :   0.3750 0.2500 0.3333  plane waves:    1474
 k-point    42 :   0.5000 0.2500 0.3333  plane waves:    1466
 k-point    43 :   0.3750 0.3750 0.3333  plane waves:    1472
 k-point    44 :   0.5000 0.3750 0.3333  plane waves:    1478
 k-point    45 :   0.5000 0.5000 0.3333  plane waves:    1480
 k-point    46 :   0.0000 0.0000 0.5000  plane waves:    1460
 k-point    47 :   0.1250 0.0000 0.5000  plane waves:    1460
 k-point    48 :   0.2500 0.0000 0.5000  plane waves:    1468
 k-point    49 :   0.3750 0.0000 0.5000  plane waves:    1468
 k-point    50 :   0.5000 0.0000 0.5000  plane waves:    1460
 k-point    51 :   0.1250 0.1250 0.5000  plane waves:    1468
 k-point    52 :   0.2500 0.1250 0.5000  plane waves:    1466
 k-point    53 :   0.3750 0.1250 0.5000  plane waves:    1472
 k-point    54 :   0.5000 0.1250 0.5000  plane waves:    1468
 k-point    55 :   0.2500 0.2500 0.5000  plane waves:    1468
 k-point    56 :   0.3750 0.2500 0.5000  plane waves:    1466
 k-point    57 :   0.5000 0.2500 0.5000  plane waves:    1464
 k-point    58 :   0.3750 0.3750 0.5000  plane waves:    1468
 k-point    59 :   0.5000 0.3750 0.5000  plane waves:    1476
 k-point    60 :   0.5000 0.5000 0.5000  plane waves:    1464

 maximum and minimum number of plane-waves per node :      1512     1440

 maximum number of plane-waves:      1512
 maximum index in each direction: 
   IXMAX=    5   IYMAX=    5   IZMAX=   10
   IXMIN=   -6   IYMIN=   -6   IZMIN=  -10


 serial   3D FFT for wavefunctions
 parallel 3D FFT for charge:
    minimum data exchange during FFTs selected (reduces bandwidth)


 total amount of memory used by VASP MPI-rank0    90498. kBytes
=======================================================================

   base      :      30000. kBytes
   nonl-proj :      26224. kBytes
   fftplans  :       7232. kBytes
   grid      :       5898. kBytes
   one-center:        124. kBytes
   wavefun   :      21020. kBytes
 
     INWAV:  cpu time      0.0000: real time      0.0001
 Broyden mixing: mesh for mixing (old mesh)
   NGX = 11   NGY = 11   NGZ = 21
  (NGX  = 48   NGY  = 48   NGZ  = 84)
  gives a total of   2541 points

 initial charge density was supplied:
 charge density of overlapping atoms calculated
 number of electron      44.0000000 magnetization       4.0000000
 keeping initial charge density in first step


--------------------------------------------------------------------------------------------------------


 Maximum index for augmentation-charges         37543 (set IRDMAX)


--------------------------------------------------------------------------------------------------------


 First call to EWALD:  gamma=   0.481
 Maximum number of real-space cells 3x 3x 2
 Maximum number of reciprocal cells 2x 2x 4

    FEWALD:  cpu time      0.0004: real time      0.0004


--------------------------------------- Ionic step        1  -------------------------------------------




--------------------------------------- Iteration      1(   1)  ---------------------------------------


    POTLOK:  cpu time      0.0378: real time      0.0379
    SETDIJ:  cpu time      0.4557: real time      0.6888
     EDDAV:  cpu time      3.8751: real time      3.8916
       DOS:  cpu time      0.0007: real time      0.0007
    --------------------------------------------
      LOOP:  cpu time      4.3693: real time      4.6190

 eigenvalue-minimisations  :  6736
 total energy-change (2. order) : 0.4791364E+03  (-0.2867423E+04)
 number of electron      44.0000000 magnetization       4.0000000
 augmentation part       44.0000000 magnetization       4.0000000

 Free energy of the ion-electron system (eV)
  ---------------------------------------------------
  alpha Z        PSCENC =       264.60919239
  Ewald energy   TEWEN  =     -4637.17866551
  -Hartree energ DENC   =     -1556.19354633
  -exchange      EXHF   =         0.00000000
  -V(xc)+E(xc)   XCENC  =       221.00441139
  PAW double counting   =      5208.65407777    -5154.59282805
  entropy T*S    EENTRO =        -0.00181923
  eigenvalues    EBANDS =        25.02149142
  atomic energy  EATOM  =      6107.81406966
  Solvation  Ediel_sol  =         0.00000000
  ---------------------------------------------------
  free energy    TOTEN  =       479.13638351 eV

  energy without entropy =      479.13820274  energy(sigma->0) =      479.13729312


--------------------------------------------------------------------------------------------------------




--------------------------------------- Iteration      1(   2)  ---------------------------------------


     EDDAV:  cpu time      3.4426: real time      3.4556
       DOS:  cpu time      0.0006: real time      0.0006
    --------------------------------------------
      LOOP:  cpu time      3.4432: real time      3.4562

 eigenvalue-minimisations  :  7344
 total energy-change (2. order) :-0.4791154E+03  (-0.4640178E+03)
 number of electron      44.0000000 magnetization       4.0000000
 augmentation part       44.0000000 magnetization       4.0000000

 Free energy of the ion-electron system (eV)
  ---------------------------------------------------
  alpha Z        PSCENC =       264.60919239
  Ewald energy   TEWEN  =     -4637.17866551
  -Hartree energ DENC   =     -1556.19354633
  -exchange      EXHF   =         0.00000000
  -V(xc)+E(xc)   XCENC  =       221.00441139
  PAW double counting   =      5208.65407777    -5154.59282805
  entropy T*S    EENTRO =        -0.00252364
  eigenvalues    EBANDS =      -454.09323524
  atomic energy  EATOM  =      6107.81406966
  Solvation  Ediel_sol  =         0.00000000
  ---------------------------------------------------
  free energy    TOTEN  =         0.02095244 eV

  energy without entropy =        0.02347608  energy(sigma->0) =        0.02221426


--------------------------------------------------------------------------------------------------------




--------------------------------------- Iteration      1(   3)  ---------------------------------------


     EDDAV:  cpu time      3.0339: real time      3.0453
       DOS:  cpu time      0.0006: real time      0.0006
    --------------------------------------------
      LOOP:  cpu time      3.0345: real time      3.0458

 eigenvalue-minimisations  :  7340
 total energy-change (2. order) :-0.2409589E+02  (-0.2375717E+02)
 number of electron      44.0000000 magnetization       4.0000000
 augmentation part       44.0000000 magnetization       4.0000000

 Free energy of the ion-electron system (eV)
  ---------------------------------------------------
  alpha Z        PSCENC =       264.60919239
  Ewald energy   TEWEN  =     -4637.17866551
  -Hartree energ DENC   =     -1556.19354633
  -exchange      EXHF   =         0.00000000
  -V(xc)+E(xc)   XCENC  =       221.00441139
  PAW double counting   =      5208.65407777    -5154.59282805
  entropy T*S    EENTRO =        -0.00209757
  eigenvalues    EBANDS =      -478.18955534
  atomic energy  EATOM  =      6107.81406966
  Solvation  Ediel_sol  =         0.00000000
  ---------------------------------------------------
  free energy    TOTEN  =       -24.07494158 eV

  energy without entropy =      -24.07284402  energy(sigma->0) =      -24.07389280


--------------------------------------------------------------------------------------------------------




--------------------------------------- Iteration      1(   4)  ---------------------------------------


     EDDAV:  cpu time      2.8399: real time      3.0543
       DOS:  cpu time      0.0005: real time      0.0005
    --------------------------------------------
      LOOP:  cpu time      2.8404: real time      3.0548

 eigenvalue-minimisations  :  7348
 total energy-change (2. order) :-0.2909684E+00  (-0.2907161E+00)
 number of electron      44.0000000 magnetization       4.0000000
 augmentation part       44.0000000 magnetization       4.0000000

 Free energy of the ion-electron system (eV)
  ---------------------------------------------------
  alpha Z        PSCENC =       264.60919239
  Ewald energy   TEWEN  =     -4637.17866551
  -Hartree energ DENC   =     -1556.19354633
  -exchange      EXHF   =         0.00000000
  -V(xc)+E(xc)   XCENC  =       221.00441139
  PAW double counting   =      5208.65407777    -5154.59282805
  entropy T*S    EENTRO =        -0.00210836
  eigenvalues    EBANDS =      -478.48051294
  atomic energy  EATOM  =      6107.81406966
  Solvation  Ediel_sol  =         0.00000000
  ---------------------------------------------------
  free energy    TOTEN  =       -24.36590998 eV

  energy without entropy =      -24.36380162  energy(sigma->0) =      -24.36485580


--------------------------------------------------------------------------------------------------------




--------------------------------------- Iteration      1(   5)  ---------------------------------------


     EDDAV:  cpu time      2.7663: real time      2.8207
       DOS:  cpu time      0.0006: real time      0.0005
    CHARGE:  cpu time      0.2756: real time      0.2761
    MIXING:  cpu time      0.0014: real time      0.0014
    --------------------------------------------
      LOOP:  cpu time      3.0439: real time      3.0987

 eigenvalue-minimisations  :  7380
 total energy-change (2. order) :-0.2971637E-02  (-0.2971460E-02)
 number of electron      44.0000000 magnetization       0.7227606
 augmentation part       16.2015820 magnetization       0.5628761

 Broyden mixing:
  rms(total) = 0.17634E+01    rms(broyden)= 0.17631E+01
  rms(prec ) = 0.26827E+01
  weight for this iteration     100.00

 Free energy of the ion-electron system (eV)
  ---------------------------------------------------
  alpha Z        PSCENC =       264.60919239
  Ewald energy   TEWEN  =     -4637.17866551
  -Hartree energ DENC   =     -1556.19354633
  -exchange      EXHF   =         0.00000000
  -V(xc)+E(xc)   XCENC  =       221.00441139
  PAW double counting   =      5208.65407777    -5154.59282805
  entropy T*S    EENTRO =        -0.00210832
  eigenvalues    EBANDS =      -478.48348462
  atomic energy  EATOM  =      6107.81406966
  Solvation  Ediel_sol  =         0.00000000
  ---------------------------------------------------
  free energy    TOTEN  =       -24.36888162 eV

  energy without entropy =      -24.36677330  energy(sigma->0) =      -24.36782746


--------------------------------------------------------------------------------------------------------




--------------------------------------- Iteration      1(   6)  ---------------------------------------


    POTLOK:  cpu time      0.0375: real time      0.0376
    SETDIJ:  cpu time      0.4045: real time      0.4068
     EDDAV:  cpu time      2.6746: real time      2.6808
       DOS:  cpu time      0.0006: real time      0.0005
    CHARGE:  cpu time      0.3005: real time      0.3015
    MIXING:  cpu time      0.0060: real time      0.0060
    --------------------------------------------
      LOOP:  cpu time      3.4236: real time      3.4332

 eigenvalue-minimisations  :  7020
 total energy-change (2. order) : 0.1621417E+01  (-0.1556968E+01)
 number of electron      44.0000000 magnetization       0.2491017
 augmentation part       16.8349327 magnetization       0.1916756

 Broyden mixing:
  rms(total) = 0.71361E+00    rms(broyden)= 0.71325E+00
  rms(prec ) = 0.12183E+01
  weight for this iteration     100.00

 eigenvalues of (default mixing * dielectric matrix)
  average eigenvalue GAMMA=   0.8343
  0.8343

 Free energy of the ion-electron system (eV)
  ---------------------------------------------------
  alpha Z        PSCENC =       264.60919239
  Ewald energy   TEWEN  =     -4637.17866551
  -Hartree energ DENC   =     -1525.95663905
  -exchange      EXHF   =         0.00000000
  -V(xc)+E(xc)   XCENC  =       220.35070921
  PAW double counting   =      5342.65974443    -5294.46699119
  entropy T*S    EENTRO =        -0.00040210
  eigenvalues    EBANDS =      -500.57848267
  atomic energy  EATOM  =      6107.81406966
  Solvation  Ediel_sol  =         0.00000000
  ---------------------------------------------------
  free energy    TOTEN  =       -22.74746484 eV

  energy without entropy =      -22.74706274  energy(sigma->0) =      -22.74726379


--------------------------------------------------------------------------------------------------------




--------------------------------------- Iteration      1(   7)  ---------------------------------------


    POTLOK:  cpu time      0.0357: real time      0.0359
    SETDIJ:  cpu time      0.4034: real time      0.4036
     EDDAV:  cpu time      2.7022: real time      2.7033
       DOS:  cpu time      0.0006: real time      0.0006
    CHARGE:  cpu time      0.2697: real time      0.2697
    MIXING:  cpu time      0.0012: real time      0.0012
    --------------------------------------------
      LOOP:  cpu time      3.4128: real time      3.4142

 eigenvalue-minimisations  :  7040
 total energy-change (2. order) : 0.5579231E+00  (-0.2539922E+00)
 number of electron      44.0000000 magnetization      -0.0677179
 augmentation part       16.5220582 magnetization      -0.0985301

 Broyden mixing:
  rms(total) = 0.36682E+00    rms(broyden)= 0.36680E+00
  rms(prec ) = 0.44173E+00
  weight for this iteration     100.00

 eigenvalues of (default mixing * dielectric matrix)
  average eigenvalue GAMMA=   0.8935
  1.0938  0.6933

 Free energy of the ion-electron system (eV)
  ---------------------------------------------------
  alpha Z        PSCENC =       264.60919239
  Ewald energy   TEWEN  =     -4637.17866551
  -Hartree energ DENC   =     -1539.25033534
  -exchange      EXHF   =         0.00000000
  -V(xc)+E(xc)   XCENC  =       220.55421224
  PAW double counting   =      5461.60056689    -5412.78507802
  entropy T*S    EENTRO =        -0.00056035
  eigenvalues    EBANDS =      -487.55294372
  atomic energy  EATOM  =      6107.81406966
  Solvation  Ediel_sol  =         0.00000000
  ---------------------------------------------------
  free energy    TOTEN  =       -22.18954176 eV

  energy without entropy =      -22.18898141  energy(sigma->0) =      -22.18926158


--------------------------------------------------------------------------------------------------------




--------------------------------------- Iteration      1(   8)  ---------------------------------------


    POTLOK:  cpu time      0.0360: real time      0.0361
    SETDIJ:  cpu time      0.4023: real time      0.4023
     EDDAV:  cpu time      2.6744: real time      2.6759
       DOS:  cpu time      0.0006: real time      0.0006
    CHARGE:  cpu time      0.2680: real time      0.2680
    MIXING:  cpu time      0.0011: real time      0.0011
    --------------------------------------------
      LOOP:  cpu time      3.3824: real time      3.3840

 eigenvalue-minimisations  :  7104
 total energy-change (2. order) :-0.1786027E-01  (-0.4128420E-01)
 number of electron      44.0000000 magnetization      -0.0560035
 augmentation part       16.5681807 magnetization      -0.0518557

 Broyden mixing:
  rms(total) = 0.15066E+00    rms(broyden)= 0.15065E+00
  rms(prec ) = 0.19255E+00
  weight for this iteration     100.00

 eigenvalues of (default mixing * dielectric matrix)
  average eigenvalue GAMMA=   1.1650
  0.7225  0.9774  1.7950

 Free energy of the ion-electron system (eV)
  ---------------------------------------------------
  alpha Z        PSCENC =       264.60919239
  Ewald energy   TEWEN  =     -4637.17866551
  -Hartree energ DENC   =     -1535.08861411
  -exchange      EXHF   =         0.00000000
  -V(xc)+E(xc)   XCENC  =       220.37547343
  PAW double counting   =      5595.11336661    -5547.43481826
  entropy T*S    EENTRO =        -0.00132408
  eigenvalues    EBANDS =      -490.41608216
  atomic energy  EATOM  =      6107.81406966
  Solvation  Ediel_sol  =         0.00000000
  ---------------------------------------------------
  free energy    TOTEN  =       -22.20740203 eV

  energy without entropy =      -22.20607795  energy(sigma->0) =      -22.20673999


--------------------------------------------------------------------------------------------------------




--------------------------------------- Iteration      1(   9)  ---------------------------------------


    POTLOK:  cpu time      0.0361: real time      0.0363
    SETDIJ:  cpu time      0.4032: real time      0.4033
     EDDAV:  cpu time      2.7340: real time      2.7352
       DOS:  cpu time      0.0005: real time      0.0005
    CHARGE:  cpu time      0.2567: real time      0.2567
    MIXING:  cpu time      0.0011: real time      0.0011
    --------------------------------------------
      LOOP:  cpu time      3.4317: real time      3.4332

 eigenvalue-minimisations  :  7332
 total energy-change (2. order) : 0.5023491E-02  (-0.2423872E-02)
 number of electron      44.0000000 magnetization      -0.0133350
 augmentation part       16.5741915 magnetization      -0.0049332

 Broyden mixing:
  rms(total) = 0.44297E-01    rms(broyden)= 0.44292E-01
  rms(prec ) = 0.52516E-01
  weight for this iteration     100.00

 eigenvalues of (default mixing * dielectric matrix)
  average eigenvalue GAMMA=   1.1534
  2.1910  0.9182  0.7522  0.7522

 Free energy of the ion-electron system (eV)
  ---------------------------------------------------
  alpha Z        PSCENC =       264.60919239
  Ewald energy   TEWEN  =     -4637.17866551
  -Hartree energ DENC   =     -1536.05290942
  -exchange      EXHF   =         0.00000000
  -V(xc)+E(xc)   XCENC  =       220.47257895
  PAW double counting   =      5676.88004233    -5629.70985036
  entropy T*S    EENTRO =        -0.00143493
  eigenvalues    EBANDS =      -489.03540164
  atomic energy  EATOM  =      6107.81406966
  Solvation  Ediel_sol  =         0.00000000
  ---------------------------------------------------
  free energy    TOTEN  =       -22.20237854 eV

  energy without entropy =      -22.20094361  energy(sigma->0) =      -22.20166107


--------------------------------------------------------------------------------------------------------




--------------------------------------- Iteration      1(  10)  ---------------------------------------


    POTLOK:  cpu time      0.0357: real time      0.0358
    SETDIJ:  cpu time      0.4041: real time      0.4041
     EDDAV:  cpu time      2.7643: real time      2.7654
       DOS:  cpu time      0.0005: real time      0.0005
    CHARGE:  cpu time      0.2600: real time      0.2600
    MIXING:  cpu time      0.0012: real time      0.0012
    --------------------------------------------
      LOOP:  cpu time      3.4658: real time      3.4671

 eigenvalue-minimisations  :  7168
 total energy-change (2. order) :-0.1347111E-02  (-0.2618184E-03)
 number of electron      44.0000000 magnetization       0.0043311
 augmentation part       16.5679784 magnetization       0.0055705

 Broyden mixing:
  rms(total) = 0.17647E-01    rms(broyden)= 0.17646E-01
  rms(prec ) = 0.20399E-01
  weight for this iteration     100.00

 eigenvalues of (default mixing * dielectric matrix)
  average eigenvalue GAMMA=   1.1870
  2.4848  1.0267  1.0267  0.6984  0.6984

 Free energy of the ion-electron system (eV)
  ---------------------------------------------------
  alpha Z        PSCENC =       264.60919239
  Ewald energy   TEWEN  =     -4637.17866551
  -Hartree energ DENC   =     -1536.56230148
  -exchange      EXHF   =         0.00000000
  -V(xc)+E(xc)   XCENC  =       220.49078515
  PAW double counting   =      5705.45077301    -5658.31788085
  entropy T*S    EENTRO =        -0.00145800
  eigenvalues    EBANDS =      -488.50824002
  atomic energy  EATOM  =      6107.81406966
  Solvation  Ediel_sol  =         0.00000000
  ---------------------------------------------------
  free energy    TOTEN  =       -22.20372565 eV

  energy without entropy =      -22.20226765  energy(sigma->0) =      -22.20299665


--------------------------------------------------------------------------------------------------------




--------------------------------------- Iteration      1(  11)  ---------------------------------------


    POTLOK:  cpu time      0.0358: real time      0.0359
    SETDIJ:  cpu time      0.4029: real time      0.4029
     EDDAV:  cpu time      2.7439: real time      2.7463
       DOS:  cpu time      0.0005: real time      0.0005
    CHARGE:  cpu time      0.2639: real time      0.2640
    MIXING:  cpu time      0.0014: real time      0.0014
    --------------------------------------------
      LOOP:  cpu time      3.4485: real time      3.4511

 eigenvalue-minimisations  :  7336
 total energy-change (2. order) :-0.1867233E-03  (-0.3638615E-04)
 number of electron      44.0000000 magnetization       0.0027868
 augmentation part       16.5677801 magnetization       0.0029308

 Broyden mixing:
  rms(total) = 0.86980E-02    rms(broyden)= 0.86975E-02
  rms(prec ) = 0.10167E-01
  weight for this iteration     100.00

 eigenvalues of (default mixing * dielectric matrix)
  average eigenvalue GAMMA=   1.1771
  2.4541  1.3616  1.0305  0.7921  0.7921  0.6319

 Free energy of the ion-electron system (eV)
  ---------------------------------------------------
  alpha Z        PSCENC =       264.60919239
  Ewald energy   TEWEN  =     -4637.17866551
  -Hartree energ DENC   =     -1536.70138724
  -exchange      EXHF   =         0.00000000
  -V(xc)+E(xc)   XCENC  =       220.49459604
  PAW double counting   =      5713.80190991    -5666.64450385
  entropy T*S    EENTRO =        -0.00143682
  eigenvalues    EBANDS =      -488.39768695
  atomic energy  EATOM  =      6107.81406966
  Solvation  Ediel_sol  =         0.00000000
  ---------------------------------------------------
  free energy    TOTEN  =       -22.20391237 eV

  energy without entropy =      -22.20247555  energy(sigma->0) =      -22.20319396


--------------------------------------------------------------------------------------------------------




--------------------------------------- Iteration      1(  12)  ---------------------------------------


    POTLOK:  cpu time      0.0367: real time      0.0368
    SETDIJ:  cpu time      0.4061: real time      0.4061
     EDDAV:  cpu time      2.7061: real time      2.7073
       DOS:  cpu time      0.0005: real time      0.0005
    CHARGE:  cpu time      0.2622: real time      0.2624
    MIXING:  cpu time      0.0014: real time      0.0014
    --------------------------------------------
      LOOP:  cpu time      3.4130: real time      3.4145

 eigenvalue-minimisations  :  7228
 total energy-change (2. order) :-0.1076153E-04  (-0.5210955E-05)
 number of electron      44.0000000 magnetization      -0.0002130
 augmentation part       16.5679806 magnetization      -0.0004804

 Broyden mixing:
  rms(total) = 0.20923E-02    rms(broyden)= 0.20919E-02
  rms(prec ) = 0.28890E-02
  weight for this iteration     100.00

 eigenvalues of (default mixing * dielectric matrix)
  average eigenvalue GAMMA=   1.2067
  2.4851  1.7698  1.0188  1.0188  0.7633  0.7633  0.6278

 Free energy of the ion-electron system (eV)
  ---------------------------------------------------
  alpha Z        PSCENC =       264.60919239
  Ewald energy   TEWEN  =     -4637.17866551
  -Hartree energ DENC   =     -1536.79481097
  -exchange      EXHF   =         0.00000000
  -V(xc)+E(xc)   XCENC  =       220.49792456
  PAW double counting   =      5717.22701155    -5670.04283089
  entropy T*S    EENTRO =        -0.00141744
  eigenvalues    EBANDS =      -488.33439649
  atomic energy  EATOM  =      6107.81406966
  Solvation  Ediel_sol  =         0.00000000
  ---------------------------------------------------
  free energy    TOTEN  =       -22.20392313 eV

  energy without entropy =      -22.20250570  energy(sigma->0) =      -22.20321441


--------------------------------------------------------------------------------------------------------




--------------------------------------- Iteration      1(  13)  ---------------------------------------


    POTLOK:  cpu time      0.0358: real time      0.0359
    SETDIJ:  cpu time      0.4036: real time      0.4036
     EDDAV:  cpu time      2.9029: real time      2.9046
       DOS:  cpu time      0.0006: real time      0.0006
    CHARGE:  cpu time      0.2595: real time      0.2595
    MIXING:  cpu time      0.0012: real time      0.0012
    --------------------------------------------
      LOOP:  cpu time      3.6035: real time      3.6054

 eigenvalue-minimisations  :  7164
 total energy-change (2. order) :-0.1008093E-04  (-0.1345073E-05)
 number of electron      44.0000000 magnetization      -0.0001469
 augmentation part       16.5679675 magnetization      -0.0002706

 Broyden mixing:
  rms(total) = 0.84604E-03    rms(broyden)= 0.84595E-03
  rms(prec ) = 0.11632E-02
  weight for this iteration     100.00

 eigenvalues of (default mixing * dielectric matrix)
  average eigenvalue GAMMA=   1.2141
  2.5840  2.0258  1.1108  1.1108  0.7715  0.7715  0.7115  0.6272

 Free energy of the ion-electron system (eV)
  ---------------------------------------------------
  alpha Z        PSCENC =       264.60919239
  Ewald energy   TEWEN  =     -4637.17866551
  -Hartree energ DENC   =     -1536.84831044
  -exchange      EXHF   =         0.00000000
  -V(xc)+E(xc)   XCENC  =       220.50012845
  PAW double counting   =      5717.86480674    -5670.66767251
  entropy T*S    EENTRO =        -0.00141286
  eigenvalues    EBANDS =      -488.29606913
  atomic energy  EATOM  =      6107.81406966
  Solvation  Ediel_sol  =         0.00000000
  ---------------------------------------------------
  free energy    TOTEN  =       -22.20393321 eV

  energy without entropy =      -22.20252036  energy(sigma->0) =      -22.20322679


--------------------------------------------------------------------------------------------------------




--------------------------------------- Iteration      1(  14)  ---------------------------------------


    POTLOK:  cpu time      0.0417: real time      0.0418
    SETDIJ:  cpu time      0.4010: real time      0.4010
     EDDAV:  cpu time      2.1895: real time      2.1898
       DOS:  cpu time      0.0006: real time      0.0006
    CHARGE:  cpu time      0.2584: real time      0.2584
    MIXING:  cpu time      0.0014: real time      0.0014
    --------------------------------------------
      LOOP:  cpu time      2.8926: real time      2.8930

 eigenvalue-minimisations  :  5116
 total energy-change (2. order) :-0.1431817E-05  (-0.1733137E-06)
 number of electron      44.0000000 magnetization       0.0000631
 augmentation part       16.5679506 magnetization       0.0000837

 Broyden mixing:
  rms(total) = 0.33306E-03    rms(broyden)= 0.33304E-03
  rms(prec ) = 0.53916E-03
  weight for this iteration     100.00

 eigenvalues of (default mixing * dielectric matrix)
  average eigenvalue GAMMA=   1.2252
  2.5902  2.0846  1.2720  1.0960  1.0960  0.7835  0.7835  0.6971  0.6238

 Free energy of the ion-electron system (eV)
  ---------------------------------------------------
  alpha Z        PSCENC =       264.60919239
  Ewald energy   TEWEN  =     -4637.17866551
  -Hartree energ DENC   =     -1536.86473049
  -exchange      EXHF   =         0.00000000
  -V(xc)+E(xc)   XCENC  =       220.50076956
  PAW double counting   =      5717.81285238    -5670.61193768
  entropy T*S    EENTRO =        -0.00141324
  eigenvalues    EBANDS =      -488.28407171
  atomic energy  EATOM  =      6107.81406966
  Solvation  Ediel_sol  =         0.00000000
  ---------------------------------------------------
  free energy    TOTEN  =       -22.20393465 eV

  energy without entropy =      -22.20252140  energy(sigma->0) =      -22.20322802


--------------------------------------------------------------------------------------------------------




--------------------------------------- Iteration      1(  15)  ---------------------------------------


    POTLOK:  cpu time      0.0354: real time      0.0355
    SETDIJ:  cpu time      0.4032: real time      0.4033
     EDDAV:  cpu time      1.9740: real time      1.9741
       DOS:  cpu time      0.0006: real time      0.0006
    --------------------------------------------
      LOOP:  cpu time      2.4132: real time      2.4134

 eigenvalue-minimisations  :  4272
 total energy-change (2. order) :-0.2293307E-06  (-0.5560482E-07)
 number of electron      44.0000000 magnetization       0.0000631
 augmentation part       16.5679506 magnetization       0.0000837

 Free energy of the ion-electron system (eV)
  ---------------------------------------------------
  alpha Z        PSCENC =       264.60919239
  Ewald energy   TEWEN  =     -4637.17866551
  -Hartree energ DENC   =     -1536.87113802
  -exchange      EXHF   =         0.00000000
  -V(xc)+E(xc)   XCENC  =       220.50097986
  PAW double counting   =      5717.62240655    -5670.42025599
  entropy T*S    EENTRO =        -0.00141471
  eigenvalues    EBANDS =      -488.27910910
  atomic energy  EATOM  =      6107.81406966
  Solvation  Ediel_sol  =         0.00000000
  ---------------------------------------------------
  free energy    TOTEN  =       -22.20393487 eV

  energy without entropy =      -22.20252017  energy(sigma->0) =      -22.20322752


--------------------------------------------------------------------------------------------------------




 average (electrostatic) potential at core
  the test charge radii are     1.0504  0.7215
  (the norm of the test charge is              1.0000)
       1 -77.8256       2 -77.8256       3 -70.0147       4 -70.0147
 
 
 
 E-fermi :   6.9036     XC(G=0): -11.8671     alpha+bet :-12.7273

 val. band max:        6.8980873007   @ k =   0.5000   0.2500   0.0000
 cond. band min:       6.9404415544   @ k =   0.5000   0.5000   0.3333
 fundamental gap:      0.0423542537
 Fermi energy:         6.9035739939

 spin component 1

 k-point     1 :       0.0000    0.0000    0.0000
  band No.  band energies     occupation 
      1     -43.9610      1.00000
      2     -43.9610      1.00000
      3     -43.9538      1.00000
      4     -43.9046      1.00000
      5     -43.1256      1.00000
      6     -43.1256      1.00000
      7     -13.4010      1.00000
      8     -12.1793      1.00000
      9      -1.9384      1.00000
     10       0.0002      1.00000
     11       0.0002      1.00000
     12       2.6114      1.00000
     13       2.8170      1.00000
     14       2.8170      1.00000
     15       3.1520      1.00000
     16       3.3487      1.00000
     17       3.6096      1.00000
     18       4.9129      1.00000
     19       4.9129      1.00000
     20       4.9681      1.00000
     21       5.1855      1.00000
     22       5.8395      1.00000
     23       8.7925      0.00000
     24       8.7925      0.00000
     25       9.0084      0.00000
     26      12.3681      0.00000
     27      15.2206      0.00000
     28      21.4426      0.00000

 k-point     2 :       0.1250    0.0000    0.0000
  band No.  band energies     occupation 
      1     -43.9735      1.00000
      2     -43.9603      1.00000
      3     -43.9506      1.00000
      4     -43.9051      1.00000
      5     -43.1351      1.00000
      6     -43.1248      1.00000
      7     -13.3223      1.00000
      8     -12.2109      1.00000
      9      -1.7737      1.00000
     10       0.0124      1.00000
     11       0.0449      1.00000
     12       1.8708      1.00000
     13       2.6731      1.00000
     14       2.8660      1.00000
     15       3.2404      1.00000
     16       3.7268      1.00000
     17       3.7523      1.00000
     18       4.9057      1.00000
     19       4.9224      1.00000
     20       4.9271      1.00000
     21       5.2669      1.00000
     22       5.8699      1.00000
     23       8.5824      0.00000
     24       8.7313      0.00000
     25       9.3774      0.00000
     26      12.9329      0.00000
     27      14.9040      0.00000
     28      19.5337      0.00000

 k-point     3 :       0.2500    0.0000    0.0000
  band No.  band energies     occupation 
      1     -44.0037      1.00000
      2     -43.9586      1.00000
      3     -43.9422      1.00000
      4     -43.9072      1.00000
      5     -43.1579      1.00000
      6     -43.1228      1.00000
      7     -13.1267      1.00000
      8     -12.2870      1.00000
      9      -1.3567      1.00000
     10       0.1264      1.00000
     11       0.1567      1.00000
     12       0.8152      1.00000
     13       2.3742      1.00000
     14       2.7279      1.00000
     15       3.1187      1.00000
     16       4.0125      1.00000
     17       4.5245      1.00000
     18       4.7224      1.00000
     19       4.8846      1.00000
     20       5.1411      1.00000
     21       5.5163      1.00000
     22       5.9325      1.00000
     23       8.2546      0.00000
     24       8.5838      0.00000
     25      10.2221      0.00000
     26      13.9920      0.00000
     27      14.2709      0.00000
     28      17.1184      0.00000

 k-point     4 :       0.3750    0.0000    0.0000
  band No.  band energies     occupation 
      1     -44.0338      1.00000
      2     -43.9569      1.00000
      3     -43.9314      1.00000
      4     -43.9115      1.00000
      5     -43.1806      1.00000
      6     -43.1207      1.00000
      7     -12.9227      1.00000
      8     -12.3633      1.00000
      9      -0.9049      1.00000
     10      -0.0049      1.00000
     11       0.2741      1.00000
     12       0.4451      1.00000
     13       1.9493      1.00000
     14       2.1192      1.00000
     15       3.4433      1.00000
     16       4.2876      1.00000
     17       4.5172      1.00000
     18       4.8571      1.00000
     19       5.0392      1.00000
     20       5.3995      1.00000
     21       5.7426      1.00000
     22       6.2593      1.00000
     23       8.1054      0.00000
     24       8.4367      0.00000
     25      11.0714      0.00000
     26      12.9881      0.00000
     27      14.9829      0.00000
     28      15.9480      0.00000

 k-point     5 :       0.5000    0.0000    0.0000
  band No.  band energies     occupation 
      1     -44.0462      1.00000
      2     -43.9562      1.00000
      3     -43.9239      1.00000
      4     -43.9164      1.00000
      5     -43.1900      1.00000
      6     -43.1199      1.00000
      7     -12.8353      1.00000
      8     -12.3947      1.00000
      9      -0.6924      1.00000
     10      -0.3277      1.00000
     11       0.3247      1.00000
     12       0.8099      1.00000
     13       1.3966      1.00000
     14       2.0223      1.00000
     15       3.6184      1.00000
     16       4.4040      1.00000
     17       4.4343      1.00000
     18       4.8436      1.00000
     19       5.0902      1.00000
     20       5.4882      1.00000
     21       5.8295      1.00000
     22       6.6142      1.00000
     23       8.0925      0.00000
     24       8.3760      0.00000
     25      11.3277      0.00000
     26      13.0256      0.00000
     27      13.6582      0.00000
     28      17.2893      0.00000

 k-point     6 :       0.1250    0.1250    0.0000
  band No.  band energies     occupation 
      1     -43.9748      1.00000
      2     -43.9708      1.00000
      3     -43.9476      1.00000
      4     -43.9055      1.00000
      5     -43.1352      1.00000
      6     -43.1333      1.00000
      7     -13.2437      1.00000
      8     -12.2420      1.00000
      9      -1.6046      1.00000
     10      -0.0610      1.00000
     11       0.1758      1.00000
     12       1.8162      1.00000
     13       1.8524      1.00000
     14       3.2093      1.00000
     15       3.2882      1.00000
     16       3.8717      1.00000
     17       3.9516      1.00000
     18       4.6887      1.00000
     19       4.9473      1.00000
     20       5.0814      1.00000
     21       5.2469      1.00000
     22       5.9154      1.00000
     23       8.3683      0.00000
     24       8.6845      0.00000
     25       9.7289      0.00000
     26      13.4678      0.00000
     27      14.6907      0.00000
     28      19.5390      0.00000

 k-point     7 :       0.2500    0.1250    0.0000
  band No.  band energies     occupation 
      1     -44.0033      1.00000
      2     -43.9706      1.00000
      3     -43.9395      1.00000
      4     -43.9072      1.00000
      5     -43.1571      1.00000
      6     -43.1320      1.00000
      7     -13.0486      1.00000
      8     -12.3174      1.00000
      9      -1.1745      1.00000
     10      -0.0434      1.00000
     11       0.3831      1.00000
     12       0.7833      1.00000
     13       1.7174      1.00000
     14       2.8278      1.00000
     15       3.5038      1.00000
     16       4.1426      1.00000
     17       4.5265      1.00000
     18       4.6185      1.00000
     19       4.8211      1.00000
     20       5.2206      1.00000
     21       5.4816      1.00000
     22       5.9526      1.00000
     23       7.9826      0.00000
     24       8.6057      0.00000
     25      10.5276      0.00000
     26      14.0108      0.00000
     27      14.7544      0.00000
     28      17.3477      0.00000

 k-point     8 :       0.3750    0.1250    0.0000
  band No.  band energies     occupation 
      1     -44.0333      1.00000
      2     -43.9689      1.00000
      3     -43.9293      1.00000
      4     -43.9111      1.00000
      5     -43.1798      1.00000
      6     -43.1299      1.00000
      7     -12.8451      1.00000
      8     -12.3927      1.00000
      9      -0.7068      1.00000
     10      -0.0291      1.00000
     11       0.0864      1.00000
     12       0.6698      1.00000
     13       1.5802      1.00000
     14       2.1283      1.00000
     15       3.7387      1.00000
     16       4.3591      1.00000
     17       4.5624      1.00000
     18       4.6501      1.00000
[...]
      9      -0.4695      1.00000
     10      -0.4695      1.00000
     11       1.0797      1.00000
     12       1.0797      1.00000
     13       1.3037      1.00000
     14       1.3037      1.00000
     15       4.2555      1.00000
     16       4.2555      1.00000
     17       4.4253      1.00000
     18       4.4253      1.00000
     19       5.3174      1.00000
     20       5.3174      1.00000
     21       5.5940      1.00000
     22       5.5940      1.00000
     23       7.7329      0.00000
     24       7.7329      0.00000
     25      12.4266      0.00000
     26      12.4266      0.00000
     27      18.6938      0.00000
     28      18.6938      0.00000

 k-point    56 :       0.3750    0.2500    0.5000
  band No.  band energies     occupation 
      1     -44.0322      1.00000
      2     -43.9995      1.00000
      3     -43.9170      1.00000
      4     -43.9154      1.00000
      5     -43.1772      1.00000
      6     -43.1525      1.00000
      7     -12.6838      1.00000
      8     -12.4311      1.00000
      9      -0.4041      1.00000
     10      -0.2688      1.00000
     11       0.2950      1.00000
     12       1.0338      1.00000
     13       1.3950      1.00000
     14       1.6926      1.00000
     15       4.0482      1.00000
     16       4.2422      1.00000
     17       4.4650      1.00000
     18       4.5724      1.00000
     19       5.0975      1.00000
     20       5.2751      1.00000
     21       5.7238      1.00000
     22       6.2029      1.00000
     23       7.6792      0.00000
     24       8.0374      0.00000
     25      12.0646      0.00000
     26      12.9402      0.00000
     27      16.9476      0.00000
     28      17.8308      0.00000

 k-point    57 :       0.5000    0.2500    0.5000
  band No.  band energies     occupation 
      1     -44.0446      1.00000
      2     -43.9984      1.00000
      3     -43.9161      1.00000
      4     -43.9139      1.00000
      5     -43.1865      1.00000
      6     -43.1516      1.00000
      7     -12.7063      1.00000
      8     -12.3461      1.00000
      9      -0.2620      1.00000
     10      -0.1847      1.00000
     11      -0.0299      1.00000
     12       0.7691      1.00000
     13       1.5494      1.00000
     14       1.9397      1.00000
     15       3.9275      1.00000
     16       4.1410      1.00000
     17       4.5888      1.00000
     18       4.7361      1.00000
     19       4.8729      1.00000
     20       5.0843      1.00000
     21       5.7847      1.00000
     22       6.5770      1.00000
     23       7.9780      0.00000
     24       8.1377      0.00000
     25      11.6134      0.00000
     26      13.2362      0.00000
     27      16.1846      0.00000
     28      17.3072      0.00000

 k-point    58 :       0.3750    0.3750    0.5000
  band No.  band energies     occupation 
      1     -44.0293      1.00000
      2     -44.0293      1.00000
      3     -43.9135      1.00000
      4     -43.9135      1.00000
      5     -43.1749      1.00000
      6     -43.1749      1.00000
      7     -12.4933      1.00000
      8     -12.4933      1.00000
      9      -0.0945      1.00000
     10      -0.0945      1.00000
     11       0.6039      1.00000
     12       0.6039      1.00000
     13       1.1476      1.00000
     14       1.1476      1.00000
     15       4.0202      1.00000
     16       4.0202      1.00000
     17       4.7413      1.00000
     18       4.7413      1.00000
     19       5.2591      1.00000
     20       5.2591      1.00000
     21       6.3289      1.00000
     22       6.3289      1.00000
     23       7.7599      0.00000
     24       7.7599      0.00000
     25      12.3827      0.00000
     26      12.3827      0.00000
     27      18.3077      0.00000
     28      18.3077      0.00000

 k-point    59 :       0.5000    0.3750    0.5000
  band No.  band energies     occupation 
      1     -44.0416      1.00000
      2     -44.0281      1.00000
      3     -43.9127      1.00000
      4     -43.9120      1.00000
      5     -43.1842      1.00000
      6     -43.1740      1.00000
      7     -12.5192      1.00000
      8     -12.4121      1.00000
      9       0.0153      1.00000
     10       0.2529      1.00000
     11       0.2884      1.00000
     12       0.5729      1.00000
     13       0.7953      1.00000
     14       1.2621      1.00000
     15       3.9216      1.00000
     16       3.9275      1.00000
     17       4.9060      1.00000
     18       4.9323      1.00000
     19       5.0836      1.00000
     20       5.2515      1.00000
     21       6.4087      1.00000
     22       6.7704      0.99992
     23       7.7481      0.00000
     24       7.7649      0.00000
     25      11.9725      0.00000
     26      12.5462      0.00000
     27      17.7411      0.00000
     28      18.2599      0.00000

 k-point    60 :       0.5000    0.5000    0.5000
  band No.  band energies     occupation 
      1     -44.0404      1.00000
      2     -44.0404      1.00000
      3     -43.9112      1.00000
      4     -43.9112      1.00000
      5     -43.1832      1.00000
      6     -43.1832      1.00000
      7     -12.4395      1.00000
      8     -12.4395      1.00000
      9       0.4381      1.00000
     10       0.4381      1.00000
     11       0.4964      1.00000
     12       0.4964      1.00000
     13       0.5656      1.00000
     14       0.5656      1.00000
     15       3.8331      1.00000
     16       3.8331      1.00000
     17       4.9610      1.00000
     18       4.9610      1.00000
     19       5.3289      1.00000
     20       5.3289      1.00000
     21       6.8392      0.96576
     22       6.8392      0.96576
     23       7.6268      0.00000
     24       7.6268      0.00000
     25      12.1457      0.00000
     26      12.1457      0.00000
     27      18.5662      0.00000
     28      18.5662      0.00000


--------------------------------------------------------------------------------------------------------


 soft charge-density along one line, spin component            1
         0         1         2         3         4         5         6         7         8         9
 total charge-density along one line
 
 soft charge-density along one line, spin component            2
         0         1         2         3         4         5         6         7         8         9
 total charge-density along one line
 
 pseudopotential strength for first ion, spin component:            1
-38.790  -0.000  -0.000   9.102   0.000   0.000   0.000  -0.000
 -0.000 -39.201  -0.000   0.000   9.335   0.000   0.000   0.000
 -0.000  -0.000 -39.228   0.000   0.000   9.353   0.000   0.000
  9.102   0.000   0.000   7.646  -0.000  -0.000  -0.000   0.000
  0.000   9.335   0.000  -0.000   7.591  -0.000  -0.000  -0.000
  0.000   0.000   9.353  -0.000  -0.000   7.589  -0.000  -0.000
  0.000   0.000   0.000  -0.000  -0.000  -0.000  -3.752  -0.000
 -0.000   0.000   0.000   0.000  -0.000  -0.000  -0.000  -3.730
  0.000  -0.000  -0.000  -0.000   0.000   0.000   0.000   0.000
  0.000   0.000  -0.000  -0.000  -0.000   0.000  -0.000   0.000
  0.000  -0.000   0.000  -0.000   0.000  -0.000  -0.000   0.000
  0.000   0.000   0.000  -0.000  -0.000  -0.000  -3.563  -0.000
 -0.000   0.000   0.000   0.000  -0.000  -0.000  -0.000  -3.539
  0.000  -0.000  -0.000  -0.000   0.000   0.000   0.000   0.000
  0.000   0.000  -0.000  -0.000  -0.000   0.000  -0.000  -0.000
  0.000  -0.000   0.000  -0.000   0.000  -0.000  -0.000   0.000
  0.000   0.000  -0.000   0.000   0.000  -0.000   0.000   0.000
  0.000   0.000  -0.000   0.000   0.000  -0.000   0.000   0.000
 pseudopotential strength for first ion, spin component:            2
-38.790  -0.000  -0.000   9.102   0.000   0.000   0.000  -0.000
 -0.000 -39.201  -0.000   0.000   9.335   0.000   0.000  -0.000
 -0.000  -0.000 -39.228   0.000   0.000   9.353   0.000   0.000
  9.102   0.000   0.000   7.646  -0.000  -0.000  -0.000   0.000
  0.000   9.335   0.000  -0.000   7.591  -0.000  -0.000  -0.000
  0.000   0.000   9.353  -0.000  -0.000   7.589  -0.000  -0.000
  0.000   0.000   0.000  -0.000  -0.000  -0.000  -3.751  -0.000
 -0.000  -0.000   0.000   0.000  -0.000  -0.000  -0.000  -3.730
  0.000  -0.000  -0.000  -0.000   0.000   0.000   0.000   0.000
  0.000   0.000  -0.000  -0.000  -0.000   0.000  -0.000   0.000
  0.000  -0.000   0.000  -0.000   0.000  -0.000  -0.000   0.000
  0.000   0.000   0.000  -0.000  -0.000  -0.000  -3.563  -0.000
 -0.000  -0.000   0.000   0.000  -0.000  -0.000  -0.000  -3.539
  0.000  -0.000  -0.000  -0.000   0.000   0.000   0.000   0.000
  0.000   0.000  -0.000  -0.000  -0.000   0.000  -0.000  -0.000
  0.000  -0.000   0.000  -0.000   0.000  -0.000  -0.000   0.000
  0.000   0.000  -0.000   0.000   0.000  -0.000   0.000   0.000
  0.000   0.000  -0.000   0.000   0.000  -0.000   0.000   0.000
 total augmentation occupancy for first ion, spin component:            1
  1.998   0.000   0.000  -0.011  -0.000  -0.000   0.000   0.000   0.000   0.000   0.000   0.000   0.000   0.000   0.000   0.000
  0.000   1.998   0.000  -0.000  -0.020  -0.000   0.000   0.000   0.000   0.000   0.000   0.000   0.000   0.000   0.000   0.000
  0.000   0.000   1.998  -0.000  -0.000  -0.021   0.000   0.000   0.000   0.000   0.000   0.000   0.000   0.000   0.000   0.000
 -0.011  -0.000  -0.000   0.045   0.000   0.000   0.000   0.000   0.000   0.000   0.000   0.000   0.000   0.000   0.000   0.000
 -0.000  -0.020  -0.000   0.000   0.134   0.000   0.000   0.000   0.000   0.000   0.000   0.000   0.000   0.000   0.000   0.000
 -0.000  -0.000  -0.021   0.000   0.000   0.159   0.000   0.000   0.000   0.000   0.000   0.000   0.000   0.000   0.000   0.000
  0.000   0.000   0.000   0.000   0.000   0.000   2.218   0.000  -0.000   0.000  -0.000  -0.323  -0.000   0.000  -0.000   0.000
  0.000   0.000   0.000   0.000   0.000   0.000   0.000   2.152   0.000   0.000  -0.000  -0.000  -0.278   0.000  -0.000   0.000
  0.000   0.000   0.000   0.000   0.000   0.000  -0.000   0.000   2.379   0.000   0.169   0.000   0.000  -0.546  -0.000  -0.115
  0.000   0.000   0.000   0.000   0.000   0.000   0.000   0.000   0.000   4.855   0.000  -0.000  -0.000  -0.000  -2.784  -0.000
  0.000   0.000   0.000   0.000   0.000   0.000  -0.000  -0.000   0.169   0.000   3.106   0.000   0.000  -0.110  -0.000  -1.168
  0.000   0.000   0.000   0.000   0.000   0.000  -0.323  -0.000   0.000  -0.000   0.000   0.375   0.000  -0.000   0.000  -0.000
  0.000   0.000   0.000   0.000   0.000   0.000  -0.000  -0.278   0.000  -0.000   0.000   0.000   0.370   0.000   0.000  -0.000
  0.000   0.000   0.000   0.000   0.000   0.000   0.000   0.000  -0.546  -0.000  -0.110  -0.000   0.000   0.671   0.000  -0.017
  0.000   0.000   0.000   0.000   0.000   0.000  -0.000  -0.000  -0.000  -2.784  -0.000   0.000   0.000   0.000   1.857   0.000
  0.000   0.000   0.000   0.000   0.000   0.000   0.000   0.000  -0.115  -0.000  -1.168  -0.000  -0.000  -0.017   0.000   1.089
  0.000   0.000   0.000   0.000   0.000   0.000  -0.000  -0.000   0.070   0.000   0.420   0.000   0.000  -0.273  -0.000  -0.848
  0.000   0.000   0.000   0.000   0.000   0.000  -0.000  -0.000   0.022  -0.000  -0.002  -0.000  -0.000   0.023   0.000   0.091
 total augmentation occupancy for first ion, spin component:            2
 -0.000  -0.000  -0.000  -0.000  -0.000  -0.000   0.000   0.000   0.000   0.000   0.000   0.000   0.000   0.000   0.000   0.000
 -0.000  -0.000  -0.000  -0.000  -0.000  -0.000   0.000   0.000   0.000   0.000   0.000   0.000   0.000   0.000   0.000   0.000
 -0.000  -0.000  -0.000  -0.000  -0.000  -0.000   0.000   0.000   0.000   0.000   0.000   0.000   0.000   0.000   0.000   0.000
 -0.000  -0.000  -0.000  -0.000  -0.000  -0.000   0.000   0.000   0.000   0.000   0.000   0.000   0.000   0.000   0.000   0.000
 -0.000  -0.000  -0.000  -0.000   0.000   0.000   0.000   0.000   0.000   0.000   0.000   0.000   0.000   0.000   0.000   0.000
 -0.000  -0.000  -0.000  -0.000   0.000   0.000   0.000   0.000   0.000   0.000   0.000   0.000   0.000   0.000   0.000   0.000
  0.000   0.000   0.000   0.000   0.000   0.000  -0.000  -0.000  -0.000  -0.000  -0.000   0.000   0.000  -0.000   0.000  -0.000
  0.000   0.000   0.000   0.000   0.000   0.000  -0.000  -0.000  -0.000  -0.000   0.000   0.000   0.000   0.000   0.000  -0.000
  0.000   0.000   0.000   0.000   0.000   0.000  -0.000  -0.000   0.000   0.000   0.000  -0.000   0.000  -0.000  -0.000   0.000
  0.000   0.000   0.000   0.000   0.000   0.000  -0.000  -0.000   0.000   0.000  -0.000   0.000   0.000  -0.000  -0.000   0.000
  0.000   0.000   0.000   0.000   0.000   0.000  -0.000   0.000   0.000  -0.000  -0.000  -0.000  -0.000   0.000   0.000   0.000
  0.000   0.000   0.000   0.000   0.000   0.000   0.000   0.000  -0.000   0.000  -0.000   0.000   0.000  -0.000   0.000  -0.000
  0.000   0.000   0.000   0.000   0.000   0.000   0.000   0.000   0.000   0.000  -0.000   0.000   0.000  -0.000   0.000  -0.000
  0.000   0.000   0.000   0.000   0.000   0.000  -0.000   0.000  -0.000  -0.000   0.000  -0.000  -0.000   0.000  -0.000  -0.000
  0.000   0.000   0.000   0.000   0.000   0.000   0.000   0.000  -0.000  -0.000   0.000   0.000   0.000  -0.000   0.000   0.000
  0.000   0.000   0.000   0.000   0.000   0.000  -0.000  -0.000   0.000   0.000   0.000  -0.000  -0.000  -0.000   0.000   0.000
  0.000   0.000   0.000   0.000   0.000   0.000  -0.000  -0.000   0.000   0.000   0.000  -0.000  -0.000   0.000   0.000   0.000
  0.000   0.000   0.000   0.000   0.000   0.000   0.000   0.000  -0.000  -0.000  -0.000   0.000   0.000  -0.000  -0.000  -0.000


------------------------ aborting loop because EDIFF is reached ----------------------------------------





 total charge

# of ion       s       p       d       tot
------------------------------------------
    1        0.300   6.191   7.924  14.415
    2        0.300   6.191   7.924  14.415
    3        1.560   3.391   0.000   4.951
    4        1.560   3.391   0.000   4.951
--------------------------------------------------
tot          3.720  19.164  15.849  38.732



 magnetization (x)

# of ion       s       p       d       tot
------------------------------------------
    1       -0.000  -0.000   0.000   0.000
    2       -0.000  -0.000   0.000   0.000
    3        0.000   0.000   0.000   0.000
    4        0.000   0.000   0.000   0.000
--------------------------------------------------
tot          0.000   0.000   0.000   0.000
 
    CHARGE:  cpu time      0.2595: real time      0.2595
    FORLOC:  cpu time      0.0011: real time      0.0011
    FORNL :  cpu time      0.4257: real time      0.4257
    FORCOR:  cpu time      0.4399: real time      0.4399
    FORHAR:  cpu time      0.0041: real time      0.0041
    MIXING:  cpu time      0.0012: real time      0.0012
    OFIELD:  cpu time      0.0000: real time      0.0000

 ---------------------------------------------------------------------------------------------

         DFTD3 V3.0 Rev 1        
 DF pbe       
 parameters
 k1-k3        =   16.0000    1.3333   -4.0000
 Edisp (eV)   -1.24372

 E6    (eV) :    -0.7446
 E8    (eV) :    -0.4991
 % E8        : 40.13
    FORVDW:  cpu time      0.0081: real time      0.0081

 VOLUME and BASIS-vectors are now :
 -----------------------------------------------------------------------------
  energy-cutoff  :      550.00
  volume of cell :       50.08
      direct lattice vectors                 reciprocal lattice vectors
     3.053604110  0.000000000  0.000000000     0.327481875 -0.000000000  0.000000000
     0.000000000  3.053604110  0.000000000     0.000000000  0.327481875  0.000000000
     0.000000000  0.000000000  5.371256790    -0.000000000 -0.000000000  0.186176167

  length of vectors
     3.053604110  3.053604110  5.371256790     0.327481875  0.327481875  0.186176167


 FORCES acting on ions
    electron-ion (+dipol)            ewald-force                    non-local-force                 convergence-correction
 -----------------------------------------------------------------------------------------------
   0.611E-12 -.116E-13 -.549E-11   0.739E-14 -.375E-14 0.568E-13   -.961E-25 0.000E+00 0.000E+00   -.717E-15 -.348E-13 0.242E-12
   0.137E-14 0.630E-12 -.336E-12   0.256E-14 0.123E-13 -.568E-13   -.328E-24 0.000E+00 0.000E+00   -.189E-13 -.161E-13 -.173E-12
   -.435E-13 0.670E-12 0.825E-12   0.312E-15 0.187E-13 0.119E-12   -.200E-16 -.694E-17 -.555E-16   0.286E-13 -.135E-13 0.161E-12
   0.210E-14 -.596E-12 -.529E-12   -.648E-14 -.261E-13 -.119E-12   0.190E-16 0.694E-17 0.555E-16   -.297E-13 0.457E-14 -.118E-12
 -----------------------------------------------------------------------------------------------
   0.571E-12 0.693E-12 -.553E-11   0.379E-14 0.117E-14 0.128E-18   -.965E-18 0.000E+00 0.000E+00   -.207E-13 -.598E-13 0.112E-12
 
 
 POSITION                                       TOTAL-FORCE (eV/Angst)
 -----------------------------------------------------------------------------------
      1.52680      0.00000      2.68563        -0.000000      0.000000      0.000000
      0.00000      1.52680      0.00000         0.000000      0.000000      0.000000
      0.00000      0.00000      4.02844         0.000000      0.000000      0.000000
      0.00000      0.00000      1.34281        -0.000000     -0.000000     -0.000000
 -----------------------------------------------------------------------------------
    total drift:                                0.000000      0.000000     -0.000000


--------------------------------------------------------------------------------------------------------



  FREE ENERGIE OF THE ION-ELECTRON SYSTEM (eV)
  ---------------------------------------------------
  free  energy   TOTEN  =       -23.44765851 eV

  energy  without entropy=      -23.44624381  energy(sigma->0) =      -23.44695116
 


--------------------------------------------------------------------------------------------------------


    POTLOK:  cpu time      0.4374: real time      0.4374


--------------------------------------------------------------------------------------------------------


     LOOP+:  cpu time     51.2016: real time     51.7670
    4ORBIT:  cpu time      0.0000: real time      0.0000



 total charge

# of ion       s       p       d       tot
------------------------------------------
    1        0.300   6.191   7.924  14.415
    2        0.300   6.191   7.924  14.415
    3        1.560   3.391   0.000   4.951
    4        1.560   3.391   0.000   4.951
--------------------------------------------------
tot          3.720  19.164  15.849  38.732



 magnetization (x)

# of ion       s       p       d       tot
------------------------------------------
    1       -0.000  -0.000   0.000   0.000
    2       -0.000  -0.000   0.000   0.000
    3        0.000   0.000   0.000   0.000
    4        0.000   0.000   0.000   0.000
--------------------------------------------------
tot          0.000   0.000   0.000   0.000
 

 total amount of memory used by VASP MPI-rank0    90498. kBytes
=======================================================================

   base      :      30000. kBytes
   nonl-proj :      26224. kBytes
   fftplans  :       7232. kBytes
   grid      :       5898. kBytes
   one-center:        124. kBytes
   wavefun   :      21020. kBytes
 
  
  
 General timing and accounting informations for this job:
 ========================================================
  
                  Total CPU time used (sec):       53.187
                            User time (sec):       51.262
                          System time (sec):        1.925
                         Elapsed time (sec):       54.096
  
                   Maximum memory used (kb):      379560.
                   Average memory used (kb):          N/A
  
                          Minor page faults:       335263
                          Major page faults:            0
                 Voluntary context switches:          256
