       N       E                     dE             d eps       ncg     rms          rms(c)
DAV:   1     0.728314490059E+03    0.72831E+03   -0.37022E+04 14080   0.176E+03
DAV:   2     0.462135025896E+01   -0.72369E+03   -0.69722E+03 14264   0.538E+02
DAV:   3    -0.214152116446E+02   -0.26037E+02   -0.25527E+02 14968   0.108E+02
DAV:   4    -0.216912704785E+02   -0.27606E+00   -0.27600E+00 14432   0.119E+01
DAV:   5    -0.216958530638E+02   -0.45826E-02   -0.45826E-02 14912   0.150E+00    0.108E+01
DAV:   6    -0.208270599002E+02    0.86879E+00   -0.37521E+00 14440   0.137E+01    0.228E+00
DAV:   7    -0.208265814690E+02    0.47843E-03   -0.39513E-02 14424   0.146E+00    0.152E+00
DAV:   8    -0.208252028338E+02    0.13786E-02   -0.45549E-03 14688   0.545E-01    0.834E-01
DAV:   9    -0.208258288096E+02   -0.62598E-03   -0.26057E-03 14304   0.427E-01    0.880E-02
DAV:  10    -0.208260912552E+02   -0.26245E-03   -0.29574E-04 15120   0.129E-01    0.848E-02
DAV:  11    -0.208261492533E+02   -0.57998E-04   -0.28579E-05 14480   0.350E-02    0.681E-02
DAV:  12    -0.208262141262E+02   -0.64873E-04   -0.15323E-04 14144   0.697E-02    0.103E-02
DAV:  13    -0.208262238327E+02   -0.97065E-05   -0.49627E-06 12536   0.177E-02    0.609E-03
DAV:  14    -0.208262257503E+02   -0.19176E-05   -0.76438E-07  7472   0.689E-03    0.273E-03
DAV:  15    -0.208262273466E+02   -0.15963E-05   -0.30181E-07  7320   0.376E-03    0.126E-03
DAV:  16    -0.208262275135E+02   -0.16693E-06   -0.48750E-08  7288   0.169E-03
   1 F= -.23447153E+02 E0= -.23447111E+02  d E =-.126599E-03  mag=     0.9580
