 vasp.6.4.3 19Mar24 (build Nov 27 2025 15:18:09) complex                         
 executed on              LinuxNV date 2026.06.04  16:31:42
 running    4 mpi-ranks, with    1 threads/rank, on    1 nodes
 distrk:  each k-point on    4 cores,    1 groups
 distr:  one band on NCORE=   1 cores,    4 groups
 OpenACC runtime initialized ...    0 GPUs detected


--------------------------------------------------------------------------------------------------------


 INCAR:
   SYSTEM = pddmc
   ENCUT = 450
   PREC = Accurate
   LASPH = .TRUE.
   ADDGRID = .TRUE.
   ISPIN = 2
   IVDW = 12
   EDIFF = 1e-06
   NELM = 200
   NELMIN = 5
   ALGO = Normal
   NCORE = 1
   LREAL = .FALSE.
   LWAVE = .FALSE.
   LCHARG = .FALSE.
   LORBIT = 11
   ISYM = 2
   IBRION = -1
   NSW = 0
   ISIF = 0
   ISMEAR = 1
   SIGMA = 0.1
   EDIFFG = -0.01

 POTCAR:    PAW_PBE Pd_pv 28Jan2005               
 -----------------------------------------------------------------------------
|                                                                             |
|           W    W    AA    RRRRR   N    N  II  N    N   GGGG   !!!           |
|           W    W   A  A   R    R  NN   N  II  NN   N  G    G  !!!           |
|           W    W  A    A  R    R  N N  N  II  N N  N  G       !!!           |
|           W WW W  AAAAAA  RRRRR   N  N N  II  N  N N  G  GGG   !            |
|           WW  WW  A    A  R   R   N   NN  II  N   NN  G    G                |
|           W    W  A    A  R    R  N    N  II  N    N   GGGG   !!!           |
|                                                                             |
|     You use a magnetic or noncollinear calculation, but did not specify     |
|     the initial magnetic moment with the MAGMOM tag. Note that a            |
|     default of 1 will be used for all atoms. This ferromagnetic setup       |
|     may break the symmetry of the crystal, in particular it may rule        |
|     out finding an antiferromagnetic solution. Thence, we recommend         |
|     setting the initial magnetic moment manually or verifying carefully     |
|     that this magnetic setup is desired.                                    |
|                                                                             |
 -----------------------------------------------------------------------------

 POTCAR:    PAW_PBE Pd_pv 28Jan2005               
   SHA256 =  3ce661545bbde58da9a95410dea32907db2844916708bcd35bbe03ee66324d7f Pd_pv/POTCAR          
   COPYR  = (c) Copyright 28Jan2005 Georg Kresse                                                    
   COPYR  = This file is part of the software VASP. Any use, copying, and all other rights are regul
   COPYR  = If you do not have a valid VASP license, you may not use, copy or distribute this file. 
   VRHFIN =Pd: 4p5s4d                                                                               
   LEXCH  = PE                                                                                      
   EATOM  =  2621.5550 eV,  192.6789 Ry                                                             
                                                                                                    
   TITEL  = PAW_PBE Pd_pv 28Jan2005                                                                 
   LULTRA =        F    use ultrasoft PP ?                                                          
   IUNSCR =        1    unscreen: 0-lin 1-nonlin 2-no                                               
   RPACOR =    2.250    partial core radius                                                         
   POMASS =  106.420; ZVAL   =   16.000    mass and valenz                                          
   RCORE  =    2.400    outmost cutoff radius                                                       
   RWIGS  =    2.300; RWIGS  =    1.217    wigner-seitz radius (au A)                               
   ENMAX  =  250.925; ENMIN  =  188.194 eV                                                          
   ICORE  =        3    local potential                                                             
   LCOR   =        T    correct aug charges                                                         
   LPAW   =        T    paw PP                                                                      
   EAUG   =  473.067                                                                                
   DEXC   =    0.000                                                                                
   RMAX   =    2.449    core radius for proj-oper                                                   
   RAUG   =    1.300    factor for augmentation sphere                                              
   RDEP   =    2.405    radius for radial grids                                                     
   RDEPT  =    1.966    core radius for aug-charge                                                  
                                                                                                    
   Atomic configuration                                                                             
   11 entries                                                                                       
     n  l   j            E        occ.                                                              
     1  0  0.50    -24164.6632   2.0000                                                             
     2  0  0.50     -3530.9218   2.0000                                                             
     2  1  1.50     -3165.6822   6.0000                                                             
     3  0  0.50      -639.4578   2.0000                                                             
     3  1  1.50      -519.4532   6.0000                                                             
     3  2  2.50      -328.9758  10.0000                                                             
     4  0  0.50       -88.7014   2.0000                                                             
     4  1  1.50       -54.4541   6.0000                                                             
     4  2  2.50        -6.6878   9.0000                                                             
     5  0  0.50        -4.3543   1.0000                                                             
     4  3  2.50        -1.3606   0.0000                                                             
   Description                                                                                      
     l       E           TYP  RCUT    TYP  RCUT                                                     
     1    -54.4540524     23  2.100                                                                 
     1      4.0817478     23  2.100                                                                 
     2     -6.6878326     23  2.400                                                                 
     2     -4.0817478     23  2.400                                                                 
     0     -4.3542962     23  2.400                                                                 
     0     13.6058260     23  2.400                                                                 
     3     -5.4423304     23  2.400                                                                 
  local pseudopotential read in
  partial core-charges read in
  partial kinetic energy density read in
  atomic valenz-charges read in
  non local Contribution for L=            1  read in
    real space projection operators read in
  non local Contribution for L=            1  read in
    real space projection operators read in
  non local Contribution for L=            2  read in
    real space projection operators read in
  non local Contribution for L=            2  read in
    real space projection operators read in
  non local Contribution for L=            0  read in
    real space projection operators read in
  non local Contribution for L=            0  read in
    real space projection operators read in
    PAW grid and wavefunctions read in
 
   number of l-projection  operators is LMAX  =            6
   number of lm-projection operators is LMMAX =           18
 
  PAW_PBE Pd_pv 28Jan2005               :
 energy of atom  1       EATOM=-2621.5550
 kinetic energy error for atom=    0.0101 (will be added to EATOM!!)
 
 
 POSCAR: Pd
  positions in cartesian coordinates
  No initial velocities read in
 IVDW         = 12
 VDW_S6       =    1.0000
 VDW_S8       =    0.7875
 VDW_A1       =    0.4289
 VDW_A2       =    4.4407
 VDW_RADIUS   =   50.2022 A
 VDW_CNRADIUS =   21.1671 A


 exchange-correlation table for PE
   RHO(1)=    0.500       N(1)  =     2000
   RHO(2)=  100.500       N(2)  =     4000
 


--------------------------------------------------------------------------------------------------------


 ion  position               nearest neighbor table
   1  0.000  0.000  0.000-   2 2.77   3 2.77   2 2.77   3 2.77   2 2.77   4 2.77   2 2.77   3 2.77
                             4 2.77   3 2.77   4 2.77   4 2.77
   2  0.000  0.500  0.500-   1 2.77   4 2.77   1 2.77   4 2.77   1 2.77   3 2.77   1 2.77   3 2.77
                             4 2.77   4 2.77   3 2.77   3 2.77
   3  0.500  0.000  0.500-   1 2.77   4 2.77   1 2.77   4 2.77   2 2.77   4 2.77   4 2.77   1 2.77
                             2 2.77   1 2.77   2 2.77   2 2.77
   4  0.500  0.500  0.000-   2 2.77   3 2.77   2 2.77   3 2.77   1 2.77   3 2.77   3 2.77   1 2.77
                             2 2.77   2 2.77   1 2.77   1 2.77
 
  LATTYP: Found a simple cubic cell.
 ALAT       =     3.9173015750
  
  Lattice vectors:
  
 A1 = (   3.9173015750,   0.0000000000,   0.0000000000)
 A2 = (   0.0000000000,   3.9173015750,   0.0000000000)
 A3 = (   0.0000000000,   0.0000000000,   3.9173015750)


Analysis of symmetry for initial positions (statically):
=====================================================================
 Subroutine PRICEL returns following result:
 
  LATTYP: Found a face centered cubic cell.
 ALAT       =     3.9173015750
  
  Lattice vectors:
  
 A1 = (   1.9586507875,  -1.9586507875,   0.0000000000)
 A2 = (   1.9586507875,   0.0000000000,   1.9586507875)
 A3 = (   0.0000000000,  -1.9586507875,   1.9586507875)
 
   4 primitive cells build up your supercell.
 

 Routine SETGRP: Setting up the symmetry group for a 
 simple cubic supercell.


 Subroutine GETGRP returns: Found 48 space group operations
 (whereof 48 operations were pure point group operations)
 out of a pool of 48 trial point group operations.


The static configuration has the point symmetry O_h .


Analysis of symmetry for dynamics (positions and initial velocities):
=====================================================================
 Subroutine PRICEL returns following result:
 
  LATTYP: Found a face centered cubic cell.
 ALAT       =     3.9173015750
  
  Lattice vectors:
  
 A1 = (   1.9586507875,  -1.9586507875,   0.0000000000)
 A2 = (   1.9586507875,   0.0000000000,   1.9586507875)
 A3 = (   0.0000000000,  -1.9586507875,   1.9586507875)
 
   4 primitive cells build up your supercell.
 

 Routine SETGRP: Setting up the symmetry group for a 
 simple cubic supercell.


 Subroutine GETGRP returns: Found 48 space group operations
 (whereof 48 operations were pure point group operations)
 out of a pool of 48 trial point group operations.


The dynamic configuration has the point symmetry O_h .


Analysis of structural, dynamic, and magnetic symmetry:
=====================================================================
 Subroutine PRICEL returns following result:
 
  LATTYP: Found a face centered cubic cell.
 ALAT       =     3.9173015750
  
  Lattice vectors:
  
 A1 = (   1.9586507875,  -1.9586507875,   0.0000000000)
 A2 = (   1.9586507875,   0.0000000000,   1.9586507875)
 A3 = (   0.0000000000,  -1.9586507875,   1.9586507875)
 
   4 primitive cells build up your supercell.
 

 Routine SETGRP: Setting up the symmetry group for a 
 simple cubic supercell.


 Subroutine GETGRP returns: Found 48 space group operations
 (whereof 48 operations were pure point group operations)
 out of a pool of 48 trial point group operations.


The overall configuration has the point symmetry O_h .


 Subroutine INISYM returns: Found 48 space group operations
 (whereof 48 operations are pure point group operations),
 and found     4 'primitive' translations


----------------------------------------------------------------------------------------

                                     Primitive cell                                     

  volume of cell :      15.0280

  direct lattice vectors                    reciprocal lattice vectors
     1.958650787 -1.958650787  0.000000000     0.255277767 -0.255277767 -0.255277767
     1.958650787  0.000000000  1.958650787     0.255277767  0.255277767  0.255277767
     0.000000000 -1.958650787  1.958650787    -0.255277767 -0.255277767  0.255277767

  length of vectors
     2.769950508  2.769950508  2.769950508     0.442154063  0.442154063  0.442154063

  position of ions in fractional coordinates (direct lattice)
     0.000000000  0.000000000  0.000000000

  ion indices of the primitive-cell ions
   primitive index   ion index
                 1           1

----------------------------------------------------------------------------------------

 
 
 KPOINTS: Automatic mesh                          

Automatic generation of k-mesh.
 Grid dimensions read from file:
 generate k-points for:   12   12   12

 Generating k-lattice:

  Cartesian coordinates                     Fractional coordinates (reciprocal lattice)
     0.021273147 -0.000000000  0.000000000     0.083333333 -0.000000000  0.000000000
     0.000000000  0.021273147  0.000000000     0.000000000  0.083333333  0.000000000
    -0.000000000 -0.000000000  0.021273147     0.000000000  0.000000000  0.083333333

  Length of vectors
     0.021273147  0.021273147  0.021273147

  Shift w.r.t. Gamma in fractional coordinates (k-lattice)
     0.000000000  0.000000000  0.000000000

 
 Subroutine IBZKPT returns following result:
 ===========================================
 
 Found     84 irreducible k-points:
 
 Following reciprocal coordinates:
            Coordinates               Weight
  0.000000  0.000000  0.000000      1.000000
  0.083333  0.000000  0.000000      6.000000
  0.166667  0.000000  0.000000      6.000000
  0.250000  0.000000  0.000000      6.000000
  0.333333  0.000000  0.000000      6.000000
  0.416667  0.000000  0.000000      6.000000
  0.500000  0.000000  0.000000      3.000000
  0.083333  0.083333  0.000000     12.000000
  0.166667  0.083333  0.000000     24.000000
  0.250000  0.083333  0.000000     24.000000
  0.333333  0.083333  0.000000     24.000000
  0.416667  0.083333  0.000000     24.000000
  0.500000  0.083333  0.000000     12.000000
  0.166667  0.166667  0.000000     12.000000
  0.250000  0.166667  0.000000     24.000000
  0.333333  0.166667  0.000000     24.000000
  0.416667  0.166667  0.000000     24.000000
  0.500000  0.166667  0.000000     12.000000
  0.250000  0.250000  0.000000     12.000000
  0.333333  0.250000  0.000000     24.000000
  0.416667  0.250000  0.000000     24.000000
  0.500000  0.250000  0.000000     12.000000
  0.333333  0.333333  0.000000     12.000000
  0.416667  0.333333  0.000000     24.000000
  0.500000  0.333333  0.000000     12.000000
  0.416667  0.416667  0.000000     12.000000
  0.500000  0.416667  0.000000     12.000000
  0.500000  0.500000  0.000000      3.000000
  0.083333  0.083333  0.083333      8.000000
  0.166667  0.083333  0.083333     24.000000
  0.250000  0.083333  0.083333     24.000000
  0.333333  0.083333  0.083333     24.000000
  0.416667  0.083333  0.083333     24.000000
  0.500000  0.083333  0.083333     12.000000
  0.166667  0.166667  0.083333     24.000000
  0.250000  0.166667  0.083333     48.000000
  0.333333  0.166667  0.083333     48.000000
  0.416667  0.166667  0.083333     48.000000
  0.500000  0.166667  0.083333     24.000000
  0.250000  0.250000  0.083333     24.000000
  0.333333  0.250000  0.083333     48.000000
  0.416667  0.250000  0.083333     48.000000
  0.500000  0.250000  0.083333     24.000000
  0.333333  0.333333  0.083333     24.000000
  0.416667  0.333333  0.083333     48.000000
  0.500000  0.333333  0.083333     24.000000
  0.416667  0.416667  0.083333     24.000000
  0.500000  0.416667  0.083333     24.000000
  0.500000  0.500000  0.083333      6.000000
  0.166667  0.166667  0.166667      8.000000
  0.250000  0.166667  0.166667     24.000000
  0.333333  0.166667  0.166667     24.000000
  0.416667  0.166667  0.166667     24.000000
  0.500000  0.166667  0.166667     12.000000
  0.250000  0.250000  0.166667     24.000000
  0.333333  0.250000  0.166667     48.000000
  0.416667  0.250000  0.166667     48.000000
  0.500000  0.250000  0.166667     24.000000
  0.333333  0.333333  0.166667     24.000000
  0.416667  0.333333  0.166667     48.000000
  0.500000  0.333333  0.166667     24.000000
  0.416667  0.416667  0.166667     24.000000
  0.500000  0.416667  0.166667     24.000000
  0.500000  0.500000  0.166667      6.000000
  0.250000  0.250000  0.250000      8.000000
  0.333333  0.250000  0.250000     24.000000
  0.416667  0.250000  0.250000     24.000000
  0.500000  0.250000  0.250000     12.000000
  0.333333  0.333333  0.250000     24.000000
  0.416667  0.333333  0.250000     48.000000
  0.500000  0.333333  0.250000     24.000000
  0.416667  0.416667  0.250000     24.000000
  0.500000  0.416667  0.250000     24.000000
  0.500000  0.500000  0.250000      6.000000
  0.333333  0.333333  0.333333      8.000000
  0.416667  0.333333  0.333333     24.000000
  0.500000  0.333333  0.333333     12.000000
  0.416667  0.416667  0.333333     24.000000
  0.500000  0.416667  0.333333     24.000000
  0.500000  0.500000  0.333333      6.000000
  0.416667  0.416667  0.416667      8.000000
  0.500000  0.416667  0.416667     12.000000
  0.500000  0.500000  0.416667      6.000000
  0.500000  0.500000  0.500000      1.000000
 
 Following cartesian coordinates:
            Coordinates               Weight
  0.000000  0.000000  0.000000      1.000000
  0.021273  0.000000  0.000000      6.000000
  0.042546  0.000000  0.000000      6.000000
  0.063819  0.000000  0.000000      6.000000
  0.085093  0.000000  0.000000      6.000000
  0.106366  0.000000  0.000000      6.000000
  0.127639  0.000000  0.000000      3.000000
  0.021273  0.021273  0.000000     12.000000
  0.042546  0.021273  0.000000     24.000000
  0.063819  0.021273  0.000000     24.000000
  0.085093  0.021273  0.000000     24.000000
  0.106366  0.021273  0.000000     24.000000
  0.127639  0.021273  0.000000     12.000000
  0.042546  0.042546  0.000000     12.000000
  0.063819  0.042546  0.000000     24.000000
  0.085093  0.042546  0.000000     24.000000
  0.106366  0.042546  0.000000     24.000000
  0.127639  0.042546  0.000000     12.000000
  0.063819  0.063819  0.000000     12.000000
  0.085093  0.063819  0.000000     24.000000
  0.106366  0.063819  0.000000     24.000000
  0.127639  0.063819  0.000000     12.000000
  0.085093  0.085093  0.000000     12.000000
  0.106366  0.085093  0.000000     24.000000
  0.127639  0.085093  0.000000     12.000000
  0.106366  0.106366  0.000000     12.000000
  0.127639  0.106366  0.000000     12.000000
  0.127639  0.127639  0.000000      3.000000
  0.021273  0.021273  0.021273      8.000000
  0.042546  0.021273  0.021273     24.000000
  0.063819  0.021273  0.021273     24.000000
  0.085093  0.021273  0.021273     24.000000
  0.106366  0.021273  0.021273     24.000000
  0.127639  0.021273  0.021273     12.000000
  0.042546  0.042546  0.021273     24.000000
  0.063819  0.042546  0.021273     48.000000
  0.085093  0.042546  0.021273     48.000000
  0.106366  0.042546  0.021273     48.000000
  0.127639  0.042546  0.021273     24.000000
  0.063819  0.063819  0.021273     24.000000
  0.085093  0.063819  0.021273     48.000000
  0.106366  0.063819  0.021273     48.000000
  0.127639  0.063819  0.021273     24.000000
  0.085093  0.085093  0.021273     24.000000
  0.106366  0.085093  0.021273     48.000000
  0.127639  0.085093  0.021273     24.000000
  0.106366  0.106366  0.021273     24.000000
  0.127639  0.106366  0.021273     24.000000
  0.127639  0.127639  0.021273      6.000000
  0.042546  0.042546  0.042546      8.000000
  0.063819  0.042546  0.042546     24.000000
  0.085093  0.042546  0.042546     24.000000
  0.106366  0.042546  0.042546     24.000000
  0.127639  0.042546  0.042546     12.000000
  0.063819  0.063819  0.042546     24.000000
  0.085093  0.063819  0.042546     48.000000
  0.106366  0.063819  0.042546     48.000000
  0.127639  0.063819  0.042546     24.000000
  0.085093  0.085093  0.042546     24.000000
  0.106366  0.085093  0.042546     48.000000
  0.127639  0.085093  0.042546     24.000000
  0.106366  0.106366  0.042546     24.000000
  0.127639  0.106366  0.042546     24.000000
  0.127639  0.127639  0.042546      6.000000
  0.063819  0.063819  0.063819      8.000000
  0.085093  0.063819  0.063819     24.000000
  0.106366  0.063819  0.063819     24.000000
  0.127639  0.063819  0.063819     12.000000
  0.085093  0.085093  0.063819     24.000000
  0.106366  0.085093  0.063819     48.000000
  0.127639  0.085093  0.063819     24.000000
  0.106366  0.106366  0.063819     24.000000
  0.127639  0.106366  0.063819     24.000000
  0.127639  0.127639  0.063819      6.000000
  0.085093  0.085093  0.085093      8.000000
  0.106366  0.085093  0.085093     24.000000
  0.127639  0.085093  0.085093     12.000000
  0.106366  0.106366  0.085093     24.000000
  0.127639  0.106366  0.085093     24.000000
  0.127639  0.127639  0.085093      6.000000
  0.106366  0.106366  0.106366      8.000000
  0.127639  0.106366  0.106366     12.000000
  0.127639  0.127639  0.106366      6.000000
  0.127639  0.127639  0.127639      1.000000
 


--------------------------------------------------------------------------------------------------------




 Dimension of arrays:
   k-points           NKPTS =     84   k-points in BZ     NKDIM =     84   number of bands    NBANDS=     40
   number of dos      NEDOS =    301   number of ions     NIONS =      4
   non local maximal  LDIM  =      6   non local SUM 2l+1 LMDIM =     18
   total plane-waves  NPLWV =  21952
   max r-space proj   IRMAX =      1   max aug-charges    IRDMAX= 117146
   dimension x,y,z NGX =    28 NGY =   28 NGZ =   28
   dimension x,y,z NGXF=    56 NGYF=   56 NGZF=   56
   support grid    NGXF=   112 NGYF=  112 NGZF=  112
   ions per type =               4
   NGX,Y,Z   is equivalent  to a cutoff of  11.88, 11.88, 11.88 a.u.
   NGXF,Y,Z  is equivalent  to a cutoff of  23.77, 23.77, 23.77 a.u.

 SYSTEM =  pddmc                                   
 POSCAR =  Pd                                      

 Startparameter for this run:
   NWRITE =      2    write-flag & timer
   PREC   = accura    normal or accurate (medium, high low for compatibility)
   ISTART =      0    job   : 0-new  1-cont  2-samecut
   ICHARG =      2    charge: 1-file 2-atom 10-const
   ISPIN  =      2    spin polarized calculation?
   LNONCOLLINEAR =      F non collinear calculations
   LSORBIT =      F    spin-orbit coupling
   INIWAV =      1    electr: 0-lowe 1-rand  2-diag
   LASPH  =      T    aspherical Exc in radial PAW
 Electronic Relaxation 1
   ENCUT  =  450.0 eV  33.07 Ry    5.75 a.u.   6.78  6.78  6.78*2*pi/ulx,y,z
   ENINI  =  450.0     initial cutoff
   ENAUG  =  473.1 eV  augmentation charge cutoff
   NELM   =    200;   NELMIN=  5; NELMDL= -5     # of ELM steps 
   EDIFF  = 0.1E-05   stopping-criterion for ELM
   LREAL  =      F    real-space projection
   NLSPLINE    = F    spline interpolate recip. space projectors
   LCOMPAT=      F    compatible to vasp.4.4
   GGA_COMPAT  = T    GGA compatible to vasp.4.4-vasp.4.6
   LMAXPAW     = -100 max onsite density
   LMAXMIX     =    2 max onsite mixed and CHGCAR
   VOSKOWN=      0    Vosko Wilk Nusair interpolation
   ROPT   =    0.00000
 Ionic relaxation
   EDIFFG = -.1E-01   stopping-criterion for IOM
   NSW    =      0    number of steps for IOM
   NBLOCK =      1;   KBLOCK =      1    inner block; outer block 
   IBRION =     -1    ionic relax: 0-MD 1-quasi-New 2-CG
   NFREE  =      0    steps in history (QN), initial steepest desc. (CG)
   ISIF   =      0    stress and relaxation
   IWAVPR =     10    prediction:  0-non 1-charg 2-wave 3-comb
   ISYM   =      2    0-nonsym 1-usesym 2-fastsym
   LCORR  =      T    Harris-Foulkes like correction to forces

   POTIM  = 0.5000    time-step for ionic-motion
   TEIN   =    0.0    initial temperature
   TEBEG  =    0.0;   TEEND  =   0.0 temperature during run
   SMASS  =  -3.00    Nose mass-parameter (am)
   estimated Nose-frequenzy (Omega)   =  0.10E-29 period in steps = 0.13E+47 mass=  -0.351E-27a.u.
   SCALEE = 1.0000    scale energy and forces
   NPACO  =    256;   APACO  = 10.0  distance and # of slots for P.C.
   PSTRESS=    0.0 pullay stress

  Mass of Ions in am
   POMASS = 106.42
  Ionic Valenz
   ZVAL   =  16.00
  Atomic Wigner-Seitz radii
   RWIGS  =  -1.00
  virtual crystal weights 
   VCA    =   1.00
   NELECT =      64.0000    total number of electrons
   NUPDOWN=      -1.0000    fix difference up-down

 DOS related values:
   EMIN   =  10.00;   EMAX   =-10.00  energy-range for DOS
   EFERMI =   0.00;   METHOD = LEGACY      
   ISMEAR =     1;   SIGMA  =   0.10  broadening in eV -4-tet -1-fermi 0-gaus

 Electronic relaxation 2 (details)
   IALGO  =     38    algorithm
   LDIAG  =      T    sub-space diagonalisation (order eigenvalues)
   LSUBROT=      F    optimize rotation matrix (better conditioning)
   TURBO    =      0    0=normal 1=particle mesh
   IRESTART =      0    0=no restart 2=restart with 2 vectors
   NREBOOT  =      0    no. of reboots
   NMIN     =      0    reboot dimension
   EREF     =   0.00    reference energy to select bands
   IMIX   =      4    mixing-type and parameters
     AMIX     =   0.40;   BMIX     =  1.00
     AMIX_MAG =   1.60;   BMIX_MAG =  1.00
     AMIN     =   0.10
     WC   =   100.;   INIMIX=   1;  MIXPRE=   1;  MAXMIX= -45

 Intra band minimization:
   WEIMIN = 0.0000     energy-eigenvalue tresh-hold
   EBREAK =  0.62E-08  absolut break condition
   DEPER  =   0.30     relativ break condition  

   TIME   =   0.40     timestep for ELM

  volume/ion in A,a.u.               =      15.03       101.41
  Fermi-wavevector in a.u.,A,eV,Ry     =   1.671659  3.158978 38.020738  2.794445
  Thomas-Fermi vector in A             =   2.756943
 
 Write flags
   LWAVE        =      F    write WAVECAR
   LDOWNSAMPLE  =      F    k-point downsampling of WAVECAR
   LCHARG       =      F    write CHGCAR
   LVTOT        =      F    write LOCPOT, total local potential
   LVHAR        =      F    write LOCPOT, Hartree potential only
   WRT_POTENTIAL= false  ! write potential to hdf5 file
   LELF         =      F    write electronic localiz. function (ELF)
   LORBIT       =     11    0 simple, 1 ext, 2 COOP (PROOUT), +10 PAW based schemes


 Dipole corrections
   LMONO      =      F    monopole corrections only (constant potential shift)
   LDIPOL     =      F    correct potential (dipole corrections)
   IDIPOL     =      0    1-x, 2-y, 3-z, 4-all directions 
   EPSILON    =  1.0000000 bulk dielectric constant
   LVACPOTAV  =      F  vacuum potentials using an averaging scheme for the charge density
   VACPOTFLAT =  0.1000000 required flatness to determine vacuum potential
 Exchange correlation treatment:
   GGA     = PE    functional components
   XC_C    = 1    coefficients multiplying the functional components
   LIBXC   =     F    Libxc                    
   VOSKOWN =     0    Vosko Wilk Nusair interpolation
   LHFCALC =     F    Hartree Fock is set to
   LHFONE  =     F    Hartree Fock one center treatment
   AEXX    =    0.0000 exact exchange contribution

 Parameters of functionals:
   PE:
     No parameter
 
 Van der Waals corrections
   IVDW    =    12    specifies the selected vdW correction

 Linear response parameters
   LEPSILON=     F    determine dielectric tensor
   LRPA    =     F    only Hartree local field effects (RPA)
   LNABLA  =     F    use nabla operator in PAW spheres
   LVEL    =     F    velocity operator in full k-point grid
   CSHIFT  =0.1000    complex shift for real part using Kramers Kronig
   OMEGAMAX=  -1.0    maximum frequency
   DEG_THRESHOLD= 0.2000000E-02 threshold for treating states as degnerate
   RTIME   =   -0.100 relaxation time in fs
  (WPLASMAI=    0.000 imaginary part of plasma frequency in eV, 0.658/RTIME)
   DFIELD  = 0.0000000 0.0000000 0.0000000 field for delta impulse in time
 
  Optional k-point grid parameters
   LKPOINTS_OPT  =     F    use optional k-point grid
   KPOINTS_OPT_MODE=     1    mode for optional k-point grid
 
 Orbital magnetization related:
   ORBITALMAG=     F  switch on orbital magnetization
   LCHIMAG   =     F  perturbation theory with respect to B field
   DQ        =  0.001000  dq finite difference perturbation B field
   LLRAUG    =     F  two centre corrections for induced B field
   LBONE     =     F  B-component reconstruction in AE one-centre
   LVGVCALC  =     T  calculate vGv susceptibility
   LVGVAPPL  =     F  apply vGv susceptibility instead of pGv for G=0

 Random number generation:
   RANDOM_GENERATOR = DEFAULT
   PCG_SEED         = not used


--------------------------------------------------------------------------------------------------------


 Static calculation
 charge density and potential will be updated during run
 spin polarized calculation
 Variant of blocked Davidson
 Davidson routine will perform the subspace rotation
 perform sub-space diagonalisation
    after iterative eigenvector-optimisation
 modified Broyden-mixing scheme, WC =      100.0
 initial mixing is a Kerker type mixing with AMIX =  0.4000 and BMIX =      1.0000
 Hartree-type preconditioning will be used
 using additional bands             8
 reciprocal scheme for non local part
 use partial core corrections
 calculate Harris-corrections to forces 
   (improved forces if not selfconsistent)
 use gradient corrections 
 use of overlap-Matrix (Vanderbilt PP)
 Methfessel and Paxton  Order N= 1 SIGMA  =   0.10


--------------------------------------------------------------------------------------------------------


  energy-cutoff  :      450.00
  volume of cell :       60.11
      direct lattice vectors                 reciprocal lattice vectors
     3.917301575  0.000000000  0.000000000     0.255277767 -0.000000000  0.000000000
     0.000000000  3.917301575  0.000000000     0.000000000  0.255277767  0.000000000
     0.000000000  0.000000000  3.917301575    -0.000000000 -0.000000000  0.255277767

  length of vectors
     3.917301575  3.917301575  3.917301575     0.255277767  0.255277767  0.255277767


 
 k-points in units of 2pi/SCALE and weight: Automatic mesh                          
   0.00000000  0.00000000  0.00000000       0.001
   0.02127315  0.00000000  0.00000000       0.003
   0.04254629  0.00000000  0.00000000       0.003
   0.06381944  0.00000000  0.00000000       0.003
   0.08509259  0.00000000  0.00000000       0.003
   0.10636574  0.00000000  0.00000000       0.003
   0.12763888  0.00000000  0.00000000       0.002
   0.02127315  0.02127315  0.00000000       0.007
   0.04254629  0.02127315  0.00000000       0.014
   0.06381944  0.02127315  0.00000000       0.014
   0.08509259  0.02127315  0.00000000       0.014
   0.10636574  0.02127315  0.00000000       0.014
   0.12763888  0.02127315  0.00000000       0.007
   0.04254629  0.04254629  0.00000000       0.007
   0.06381944  0.04254629  0.00000000       0.014
   0.08509259  0.04254629  0.00000000       0.014
   0.10636574  0.04254629  0.00000000       0.014
   0.12763888  0.04254629  0.00000000       0.007
   0.06381944  0.06381944  0.00000000       0.007
   0.08509259  0.06381944  0.00000000       0.014
   0.10636574  0.06381944  0.00000000       0.014
   0.12763888  0.06381944  0.00000000       0.007
   0.08509259  0.08509259  0.00000000       0.007
   0.10636574  0.08509259  0.00000000       0.014
   0.12763888  0.08509259  0.00000000       0.007
   0.10636574  0.10636574  0.00000000       0.007
   0.12763888  0.10636574  0.00000000       0.007
   0.12763888  0.12763888  0.00000000       0.002
   0.02127315  0.02127315  0.02127315       0.005
   0.04254629  0.02127315  0.02127315       0.014
   0.06381944  0.02127315  0.02127315       0.014
   0.08509259  0.02127315  0.02127315       0.014
   0.10636574  0.02127315  0.02127315       0.014
   0.12763888  0.02127315  0.02127315       0.007
   0.04254629  0.04254629  0.02127315       0.014
   0.06381944  0.04254629  0.02127315       0.028
   0.08509259  0.04254629  0.02127315       0.028
   0.10636574  0.04254629  0.02127315       0.028
   0.12763888  0.04254629  0.02127315       0.014
   0.06381944  0.06381944  0.02127315       0.014
   0.08509259  0.06381944  0.02127315       0.028
   0.10636574  0.06381944  0.02127315       0.028
   0.12763888  0.06381944  0.02127315       0.014
   0.08509259  0.08509259  0.02127315       0.014
   0.10636574  0.08509259  0.02127315       0.028
   0.12763888  0.08509259  0.02127315       0.014
   0.10636574  0.10636574  0.02127315       0.014
   0.12763888  0.10636574  0.02127315       0.014
   0.12763888  0.12763888  0.02127315       0.003
   0.04254629  0.04254629  0.04254629       0.005
   0.06381944  0.04254629  0.04254629       0.014
   0.08509259  0.04254629  0.04254629       0.014
   0.10636574  0.04254629  0.04254629       0.014
   0.12763888  0.04254629  0.04254629       0.007
   0.06381944  0.06381944  0.04254629       0.014
   0.08509259  0.06381944  0.04254629       0.028
   0.10636574  0.06381944  0.04254629       0.028
   0.12763888  0.06381944  0.04254629       0.014
   0.08509259  0.08509259  0.04254629       0.014
   0.10636574  0.08509259  0.04254629       0.028
   0.12763888  0.08509259  0.04254629       0.014
   0.10636574  0.10636574  0.04254629       0.014
   0.12763888  0.10636574  0.04254629       0.014
   0.12763888  0.12763888  0.04254629       0.003
   0.06381944  0.06381944  0.06381944       0.005
   0.08509259  0.06381944  0.06381944       0.014
   0.10636574  0.06381944  0.06381944       0.014
   0.12763888  0.06381944  0.06381944       0.007
   0.08509259  0.08509259  0.06381944       0.014
   0.10636574  0.08509259  0.06381944       0.028
   0.12763888  0.08509259  0.06381944       0.014
   0.10636574  0.10636574  0.06381944       0.014
   0.12763888  0.10636574  0.06381944       0.014
   0.12763888  0.12763888  0.06381944       0.003
   0.08509259  0.08509259  0.08509259       0.005
   0.10636574  0.08509259  0.08509259       0.014
   0.12763888  0.08509259  0.08509259       0.007
   0.10636574  0.10636574  0.08509259       0.014
   0.12763888  0.10636574  0.08509259       0.014
   0.12763888  0.12763888  0.08509259       0.003
   0.10636574  0.10636574  0.10636574       0.005
   0.12763888  0.10636574  0.10636574       0.007
   0.12763888  0.12763888  0.10636574       0.003
   0.12763888  0.12763888  0.12763888       0.001
 
 k-points in reciprocal lattice and weights: Automatic mesh                          
   0.00000000  0.00000000  0.00000000       0.001
   0.08333333  0.00000000  0.00000000       0.003
   0.16666667  0.00000000  0.00000000       0.003
   0.25000000  0.00000000  0.00000000       0.003
   0.33333333  0.00000000  0.00000000       0.003
   0.41666667  0.00000000  0.00000000       0.003
   0.50000000  0.00000000  0.00000000       0.002
   0.08333333  0.08333333  0.00000000       0.007
   0.16666667  0.08333333  0.00000000       0.014
   0.25000000  0.08333333  0.00000000       0.014
   0.33333333  0.08333333  0.00000000       0.014
   0.41666667  0.08333333  0.00000000       0.014
   0.50000000  0.08333333  0.00000000       0.007
   0.16666667  0.16666667  0.00000000       0.007
   0.25000000  0.16666667  0.00000000       0.014
   0.33333333  0.16666667  0.00000000       0.014
   0.41666667  0.16666667  0.00000000       0.014
   0.50000000  0.16666667  0.00000000       0.007
   0.25000000  0.25000000  0.00000000       0.007
   0.33333333  0.25000000  0.00000000       0.014
   0.41666667  0.25000000  0.00000000       0.014
   0.50000000  0.25000000  0.00000000       0.007
   0.33333333  0.33333333  0.00000000       0.007
   0.41666667  0.33333333  0.00000000       0.014
   0.50000000  0.33333333  0.00000000       0.007
   0.41666667  0.41666667  0.00000000       0.007
   0.50000000  0.41666667  0.00000000       0.007
   0.50000000  0.50000000  0.00000000       0.002
   0.08333333  0.08333333  0.08333333       0.005
   0.16666667  0.08333333  0.08333333       0.014
   0.25000000  0.08333333  0.08333333       0.014
   0.33333333  0.08333333  0.08333333       0.014
   0.41666667  0.08333333  0.08333333       0.014
   0.50000000  0.08333333  0.08333333       0.007
   0.16666667  0.16666667  0.08333333       0.014
   0.25000000  0.16666667  0.08333333       0.028
   0.33333333  0.16666667  0.08333333       0.028
   0.41666667  0.16666667  0.08333333       0.028
   0.50000000  0.16666667  0.08333333       0.014
   0.25000000  0.25000000  0.08333333       0.014
   0.33333333  0.25000000  0.08333333       0.028
   0.41666667  0.25000000  0.08333333       0.028
   0.50000000  0.25000000  0.08333333       0.014
   0.33333333  0.33333333  0.08333333       0.014
   0.41666667  0.33333333  0.08333333       0.028
   0.50000000  0.33333333  0.08333333       0.014
   0.41666667  0.41666667  0.08333333       0.014
   0.50000000  0.41666667  0.08333333       0.014
   0.50000000  0.50000000  0.08333333       0.003
   0.16666667  0.16666667  0.16666667       0.005
   0.25000000  0.16666667  0.16666667       0.014
   0.33333333  0.16666667  0.16666667       0.014
   0.41666667  0.16666667  0.16666667       0.014
   0.50000000  0.16666667  0.16666667       0.007
   0.25000000  0.25000000  0.16666667       0.014
   0.33333333  0.25000000  0.16666667       0.028
   0.41666667  0.25000000  0.16666667       0.028
   0.50000000  0.25000000  0.16666667       0.014
   0.33333333  0.33333333  0.16666667       0.014
   0.41666667  0.33333333  0.16666667       0.028
   0.50000000  0.33333333  0.16666667       0.014
   0.41666667  0.41666667  0.16666667       0.014
   0.50000000  0.41666667  0.16666667       0.014
   0.50000000  0.50000000  0.16666667       0.003
   0.25000000  0.25000000  0.25000000       0.005
   0.33333333  0.25000000  0.25000000       0.014
   0.41666667  0.25000000  0.25000000       0.014
   0.50000000  0.25000000  0.25000000       0.007
   0.33333333  0.33333333  0.25000000       0.014
   0.41666667  0.33333333  0.25000000       0.028
   0.50000000  0.33333333  0.25000000       0.014
   0.41666667  0.41666667  0.25000000       0.014
   0.50000000  0.41666667  0.25000000       0.014
   0.50000000  0.50000000  0.25000000       0.003
   0.33333333  0.33333333  0.33333333       0.005
   0.41666667  0.33333333  0.33333333       0.014
   0.50000000  0.33333333  0.33333333       0.007
   0.41666667  0.41666667  0.33333333       0.014
   0.50000000  0.41666667  0.33333333       0.014
   0.50000000  0.50000000  0.33333333       0.003
   0.41666667  0.41666667  0.41666667       0.005
   0.50000000  0.41666667  0.41666667       0.007
   0.50000000  0.50000000  0.41666667       0.003
   0.50000000  0.50000000  0.50000000       0.001
 
 position of ions in fractional coordinates (direct lattice) 
   0.00000000  0.00000000  0.00000000
   0.00000000  0.50000000  0.50000000
   0.50000000  0.00000000  0.50000000
   0.50000000  0.50000000  0.00000000
 
 position of ions in cartesian coordinates  (Angst):
   0.00000000  0.00000000  0.00000000
   0.00000000  1.95865079  1.95865079
   1.95865079  0.00000000  1.95865079
   1.95865079  1.95865079  0.00000000
 


--------------------------------------------------------------------------------------------------------


 k-point     1 :   0.0000 0.0000 0.0000  plane waves:    1309
 k-point     2 :   0.0833 0.0000 0.0000  plane waves:    1329
 k-point     3 :   0.1667 0.0000 0.0000  plane waves:    1305
 k-point     4 :   0.2500 0.0000 0.0000  plane waves:    1298
 k-point     5 :   0.3333 0.0000 0.0000  plane waves:    1310
 k-point     6 :   0.4167 0.0000 0.0000  plane waves:    1298
 k-point     7 :   0.5000 0.0000 0.0000  plane waves:    1278
 k-point     8 :   0.0833 0.0833 0.0000  plane waves:    1315
 k-point     9 :   0.1667 0.0833 0.0000  plane waves:    1302
 k-point    10 :   0.2500 0.0833 0.0000  plane waves:    1301
 k-point    11 :   0.3333 0.0833 0.0000  plane waves:    1302
 k-point    12 :   0.4167 0.0833 0.0000  plane waves:    1294
 k-point    13 :   0.5000 0.0833 0.0000  plane waves:    1286
 k-point    14 :   0.1667 0.1667 0.0000  plane waves:    1303
 k-point    15 :   0.2500 0.1667 0.0000  plane waves:    1301
 k-point    16 :   0.3333 0.1667 0.0000  plane waves:    1306
 k-point    17 :   0.4167 0.1667 0.0000  plane waves:    1305
 k-point    18 :   0.5000 0.1667 0.0000  plane waves:    1292
 k-point    19 :   0.2500 0.2500 0.0000  plane waves:    1298
 k-point    20 :   0.3333 0.2500 0.0000  plane waves:    1303
 k-point    21 :   0.4167 0.2500 0.0000  plane waves:    1311
 k-point    22 :   0.5000 0.2500 0.0000  plane waves:    1304
 k-point    23 :   0.3333 0.3333 0.0000  plane waves:    1312
 k-point    24 :   0.4167 0.3333 0.0000  plane waves:    1303
 k-point    25 :   0.5000 0.3333 0.0000  plane waves:    1298
 k-point    26 :   0.4167 0.4167 0.0000  plane waves:    1302
 k-point    27 :   0.5000 0.4167 0.0000  plane waves:    1304
 k-point    28 :   0.5000 0.5000 0.0000  plane waves:    1308
 k-point    29 :   0.0833 0.0833 0.0833  plane waves:    1315
 k-point    30 :   0.1667 0.0833 0.0833  plane waves:    1309
 k-point    31 :   0.2500 0.0833 0.0833  plane waves:    1296
 k-point    32 :   0.3333 0.0833 0.0833  plane waves:    1300
 k-point    33 :   0.4167 0.0833 0.0833  plane waves:    1299
 k-point    34 :   0.5000 0.0833 0.0833  plane waves:    1298
 k-point    35 :   0.1667 0.1667 0.0833  plane waves:    1305
 k-point    36 :   0.2500 0.1667 0.0833  plane waves:    1300
 k-point    37 :   0.3333 0.1667 0.0833  plane waves:    1303
 k-point    38 :   0.4167 0.1667 0.0833  plane waves:    1309
 k-point    39 :   0.5000 0.1667 0.0833  plane waves:    1298
 k-point    40 :   0.2500 0.2500 0.0833  plane waves:    1306
 k-point    41 :   0.3333 0.2500 0.0833  plane waves:    1304
 k-point    42 :   0.4167 0.2500 0.0833  plane waves:    1297
 k-point    43 :   0.5000 0.2500 0.0833  plane waves:    1296
 k-point    44 :   0.3333 0.3333 0.0833  plane waves:    1303
 k-point    45 :   0.4167 0.3333 0.0833  plane waves:    1300
 k-point    46 :   0.5000 0.3333 0.0833  plane waves:    1300
 k-point    47 :   0.4167 0.4167 0.0833  plane waves:    1307
 k-point    48 :   0.5000 0.4167 0.0833  plane waves:    1300
 k-point    49 :   0.5000 0.5000 0.0833  plane waves:    1300
 k-point    50 :   0.1667 0.1667 0.1667  plane waves:    1298
 k-point    51 :   0.2500 0.1667 0.1667  plane waves:    1305
 k-point    52 :   0.3333 0.1667 0.1667  plane waves:    1307
 k-point    53 :   0.4167 0.1667 0.1667  plane waves:    1300
 k-point    54 :   0.5000 0.1667 0.1667  plane waves:    1300
 k-point    55 :   0.2500 0.2500 0.1667  plane waves:    1298
 k-point    56 :   0.3333 0.2500 0.1667  plane waves:    1301
 k-point    57 :   0.4167 0.2500 0.1667  plane waves:    1297
 k-point    58 :   0.5000 0.2500 0.1667  plane waves:    1302
 k-point    59 :   0.3333 0.3333 0.1667  plane waves:    1301
 k-point    60 :   0.4167 0.3333 0.1667  plane waves:    1298
 k-point    61 :   0.5000 0.3333 0.1667  plane waves:    1306
 k-point    62 :   0.4167 0.4167 0.1667  plane waves:    1300
 k-point    63 :   0.5000 0.4167 0.1667  plane waves:    1296
 k-point    64 :   0.5000 0.5000 0.1667  plane waves:    1316
 k-point    65 :   0.2500 0.2500 0.2500  plane waves:    1304
 k-point    66 :   0.3333 0.2500 0.2500  plane waves:    1294
 k-point    67 :   0.4167 0.2500 0.2500  plane waves:    1298
 k-point    68 :   0.5000 0.2500 0.2500  plane waves:    1324
 k-point    69 :   0.3333 0.3333 0.2500  plane waves:    1294
 k-point    70 :   0.4167 0.3333 0.2500  plane waves:    1302
 k-point    71 :   0.5000 0.3333 0.2500  plane waves:    1304
 k-point    72 :   0.4167 0.4167 0.2500  plane waves:    1298
 k-point    73 :   0.5000 0.4167 0.2500  plane waves:    1308
 k-point    74 :   0.5000 0.5000 0.2500  plane waves:    1312
 k-point    75 :   0.3333 0.3333 0.3333  plane waves:    1295
 k-point    76 :   0.4167 0.3333 0.3333  plane waves:    1316
 k-point    77 :   0.5000 0.3333 0.3333  plane waves:    1314
 k-point    78 :   0.4167 0.4167 0.3333  plane waves:    1308
 k-point    79 :   0.5000 0.4167 0.3333  plane waves:    1310
 k-point    80 :   0.5000 0.5000 0.3333  plane waves:    1304
 k-point    81 :   0.4167 0.4167 0.4167  plane waves:    1316
 k-point    82 :   0.5000 0.4167 0.4167  plane waves:    1316
 k-point    83 :   0.5000 0.5000 0.4167  plane waves:    1332
 k-point    84 :   0.5000 0.5000 0.5000  plane waves:    1328

 maximum and minimum number of plane-waves per node :      1332     1278

 maximum number of plane-waves:      1332
 maximum index in each direction: 
   IXMAX=    6   IYMAX=    6   IZMAX=    6
   IXMIN=   -7   IYMIN=   -7   IZMIN=   -7


 serial   3D FFT for wavefunctions
 parallel 3D FFT for charge:
    minimum data exchange during FFTs selected (reduces bandwidth)


 total amount of memory used by VASP MPI-rank0    95701. kBytes
=======================================================================

   base      :      30000. kBytes
   nonl-proj :      16197. kBytes
   fftplans  :       6611. kBytes
   grid      :       5030. kBytes
   one-center:        124. kBytes
   wavefun   :      37739. kBytes
 
     INWAV:  cpu time      0.0000: real time      0.0001
 Broyden mixing: mesh for mixing (old mesh)
   NGX = 13   NGY = 13   NGZ = 13
  (NGX  = 56   NGY  = 56   NGZ  = 56)
  gives a total of   2197 points

 initial charge density was supplied:
 charge density of overlapping atoms calculated
 number of electron      64.0000000 magnetization       4.0000000
 keeping initial charge density in first step


--------------------------------------------------------------------------------------------------------


 Maximum index for augmentation-charges         28435 (set IRDMAX)


--------------------------------------------------------------------------------------------------------


 First call to EWALD:  gamma=   0.452
 Maximum number of real-space cells 3x 3x 3
 Maximum number of reciprocal cells 3x 3x 3

    FEWALD:  cpu time      0.0004: real time      0.0004


--------------------------------------- Ionic step        1  -------------------------------------------




--------------------------------------- Iteration      1(   1)  ---------------------------------------


    POTLOK:  cpu time      0.0370: real time      0.0371
    SETDIJ:  cpu time      0.4064: real time      0.4100
     EDDAV:  cpu time      5.8353: real time      5.8759
       DOS:  cpu time      0.0012: real time      0.0012
    --------------------------------------------
      LOOP:  cpu time      6.2798: real time      6.3241

 eigenvalue-minimisations  : 14080
 total energy-change (2. order) : 0.7283145E+03  (-0.3702185E+04)
 number of electron      64.0000000 magnetization       4.0000000
 augmentation part       64.0000000 magnetization       4.0000000

 Free energy of the ion-electron system (eV)
  ---------------------------------------------------
  alpha Z        PSCENC =       542.73305656
  Ewald energy   TEWEN  =     -8629.09612564
  -Hartree energ DENC   =     -2225.92554515
  -exchange      EXHF   =         0.00000000
  -V(xc)+E(xc)   XCENC  =       331.53594604
  PAW double counting   =      9031.68406025    -8916.38598993
  entropy T*S    EENTRO =        -0.00050914
  eigenvalues    EBANDS =       107.59014424
  atomic energy  EATOM  =     10486.17945283
  Solvation  Ediel_sol  =         0.00000000
  ---------------------------------------------------
  free energy    TOTEN  =       728.31449006 eV

  energy without entropy =      728.31499920  energy(sigma->0) =      728.31465977


--------------------------------------------------------------------------------------------------------




--------------------------------------- Iteration      1(   2)  ---------------------------------------


     EDDAV:  cpu time      5.9215: real time      5.9485
       DOS:  cpu time      0.0012: real time      0.0012
    --------------------------------------------
      LOOP:  cpu time      5.9227: real time      5.9497

 eigenvalue-minimisations  : 14264
 total energy-change (2. order) :-0.7236931E+03  (-0.6972208E+03)
 number of electron      64.0000000 magnetization       4.0000000
 augmentation part       64.0000000 magnetization       4.0000000

 Free energy of the ion-electron system (eV)
  ---------------------------------------------------
  alpha Z        PSCENC =       542.73305656
  Ewald energy   TEWEN  =     -8629.09612564
  -Hartree energ DENC   =     -2225.92554515
  -exchange      EXHF   =         0.00000000
  -V(xc)+E(xc)   XCENC  =       331.53594604
  PAW double counting   =      9031.68406025    -8916.38598993
  entropy T*S    EENTRO =         0.00002123
  eigenvalues    EBANDS =      -616.10352593
  atomic energy  EATOM  =     10486.17945283
  Solvation  Ediel_sol  =         0.00000000
  ---------------------------------------------------
  free energy    TOTEN  =         4.62135026 eV

  energy without entropy =        4.62132903  energy(sigma->0) =        4.62134318


--------------------------------------------------------------------------------------------------------




--------------------------------------- Iteration      1(   3)  ---------------------------------------


     EDDAV:  cpu time      5.9487: real time      6.0376
       DOS:  cpu time      0.0012: real time      0.0012
    --------------------------------------------
      LOOP:  cpu time      5.9499: real time      6.0388

 eigenvalue-minimisations  : 14968
 total energy-change (2. order) :-0.2603656E+02  (-0.2552697E+02)
 number of electron      64.0000000 magnetization       4.0000000
 augmentation part       64.0000000 magnetization       4.0000000

 Free energy of the ion-electron system (eV)
  ---------------------------------------------------
  alpha Z        PSCENC =       542.73305656
  Ewald energy   TEWEN  =     -8629.09612564
  -Hartree energ DENC   =     -2225.92554515
  -exchange      EXHF   =         0.00000000
  -V(xc)+E(xc)   XCENC  =       331.53594604
  PAW double counting   =      9031.68406025    -8916.38598993
  entropy T*S    EENTRO =         0.00150853
  eigenvalues    EBANDS =      -642.14157513
  atomic energy  EATOM  =     10486.17945283
  Solvation  Ediel_sol  =         0.00000000
  ---------------------------------------------------
  free energy    TOTEN  =       -21.41521164 eV

  energy without entropy =      -21.41672017  energy(sigma->0) =      -21.41571449


--------------------------------------------------------------------------------------------------------




--------------------------------------- Iteration      1(   4)  ---------------------------------------


     EDDAV:  cpu time      5.4084: real time      5.4396
       DOS:  cpu time      0.0013: real time      0.0013
    --------------------------------------------
      LOOP:  cpu time      5.4097: real time      5.4409

 eigenvalue-minimisations  : 14432
 total energy-change (2. order) :-0.2760588E+00  (-0.2760004E+00)
 number of electron      64.0000000 magnetization       4.0000000
 augmentation part       64.0000000 magnetization       4.0000000

 Free energy of the ion-electron system (eV)
  ---------------------------------------------------
  alpha Z        PSCENC =       542.73305656
  Ewald energy   TEWEN  =     -8629.09612564
  -Hartree energ DENC   =     -2225.92554515
  -exchange      EXHF   =         0.00000000
  -V(xc)+E(xc)   XCENC  =       331.53594604
  PAW double counting   =      9031.68406025    -8916.38598993
  entropy T*S    EENTRO =         0.00147218
  eigenvalues    EBANDS =      -642.41759762
  atomic energy  EATOM  =     10486.17945283
  Solvation  Ediel_sol  =         0.00000000
  ---------------------------------------------------
  free energy    TOTEN  =       -21.69127048 eV

  energy without entropy =      -21.69274266  energy(sigma->0) =      -21.69176120


--------------------------------------------------------------------------------------------------------




--------------------------------------- Iteration      1(   5)  ---------------------------------------


     EDDAV:  cpu time      5.5205: real time      5.5827
       DOS:  cpu time      0.0013: real time      0.0013
    CHARGE:  cpu time      0.5274: real time      0.5298
    MIXING:  cpu time      0.0011: real time      0.0011
    --------------------------------------------
      LOOP:  cpu time      6.0503: real time      6.1148

 eigenvalue-minimisations  : 14912
 total energy-change (2. order) :-0.4582585E-02  (-0.4582550E-02)
 number of electron      64.0000003 magnetization       1.8392392
 augmentation part       29.8748007 magnetization       1.0182293

 Broyden mixing:
  rms(total) = 0.10806E+01    rms(broyden)= 0.10804E+01
  rms(prec ) = 0.18645E+01
  weight for this iteration     100.00

 Free energy of the ion-electron system (eV)
  ---------------------------------------------------
  alpha Z        PSCENC =       542.73305656
  Ewald energy   TEWEN  =     -8629.09612564
  -Hartree energ DENC   =     -2225.92554515
  -exchange      EXHF   =         0.00000000
  -V(xc)+E(xc)   XCENC  =       331.53594604
  PAW double counting   =      9031.68406025    -8916.38598993
  entropy T*S    EENTRO =         0.00147232
  eigenvalues    EBANDS =      -642.42218034
  atomic energy  EATOM  =     10486.17945283
  Solvation  Ediel_sol  =         0.00000000
  ---------------------------------------------------
  free energy    TOTEN  =       -21.69585306 eV

  energy without entropy =      -21.69732538  energy(sigma->0) =      -21.69634384


--------------------------------------------------------------------------------------------------------




--------------------------------------- Iteration      1(   6)  ---------------------------------------


    POTLOK:  cpu time      0.0340: real time      0.0343
    SETDIJ:  cpu time      0.4041: real time      0.4064
     EDDAV:  cpu time      6.1268: real time      6.2079
       DOS:  cpu time      0.0012: real time      0.0012
    CHARGE:  cpu time      0.5255: real time      0.6123
    MIXING:  cpu time      0.0010: real time      0.0010
    --------------------------------------------
      LOOP:  cpu time      7.0925: real time      7.2630

 eigenvalue-minimisations  : 14440
 total energy-change (2. order) : 0.8687932E+00  (-0.3752074E+00)
 number of electron      64.0000003 magnetization       1.5096906
 augmentation part       30.6973564 magnetization       0.9148213

 Broyden mixing:
  rms(total) = 0.22818E+00    rms(broyden)= 0.22807E+00
  rms(prec ) = 0.27461E+00
  weight for this iteration     100.00

 eigenvalues of (default mixing * dielectric matrix)
  average eigenvalue GAMMA=   1.0111
  1.0111

 Free energy of the ion-electron system (eV)
  ---------------------------------------------------
  alpha Z        PSCENC =       542.73305656
  Ewald energy   TEWEN  =     -8629.09612564
  -Hartree energ DENC   =     -2157.22803845
  -exchange      EXHF   =         0.00000000
  -V(xc)+E(xc)   XCENC  =       328.31880602
  PAW double counting   =      9250.64491338    -9143.13131407
  entropy T*S    EENTRO =         0.00076581
  eigenvalues    EBANDS =      -699.24857635
  atomic energy  EATOM  =     10486.17945283
  Solvation  Ediel_sol  =         0.00000000
  ---------------------------------------------------
  free energy    TOTEN  =       -20.82705990 eV

  energy without entropy =      -20.82782571  energy(sigma->0) =      -20.82731517


--------------------------------------------------------------------------------------------------------




--------------------------------------- Iteration      1(   7)  ---------------------------------------


    POTLOK:  cpu time      0.0356: real time      0.0356
    SETDIJ:  cpu time      0.4033: real time      0.4177
     EDDAV:  cpu time      6.1251: real time      6.1920
       DOS:  cpu time      0.0013: real time      0.0013
    CHARGE:  cpu time      0.5322: real time      0.5329
    MIXING:  cpu time      0.0010: real time      0.0010
    --------------------------------------------
      LOOP:  cpu time      7.0984: real time      7.1804

 eigenvalue-minimisations  : 14424
 total energy-change (2. order) : 0.4784312E-03  (-0.3951259E-02)
 number of electron      64.0000003 magnetization       1.2848711
 augmentation part       30.6826288 magnetization       0.8067408

 Broyden mixing:
  rms(total) = 0.15169E+00    rms(broyden)= 0.15168E+00
  rms(prec ) = 0.17848E+00
  weight for this iteration     100.00

 eigenvalues of (default mixing * dielectric matrix)
  average eigenvalue GAMMA=   0.9696
  1.2916  0.6475

 Free energy of the ion-electron system (eV)
  ---------------------------------------------------
  alpha Z        PSCENC =       542.73305656
  Ewald energy   TEWEN  =     -8629.09612564
  -Hartree energ DENC   =     -2156.46462000
  -exchange      EXHF   =         0.00000000
  -V(xc)+E(xc)   XCENC  =       328.26792011
  PAW double counting   =      9380.87352662    -9274.67987421
  entropy T*S    EENTRO =        -0.00028874
  eigenvalues    EBANDS =      -698.63962901
  atomic energy  EATOM  =     10486.17945283
  Solvation  Ediel_sol  =         0.00000000
  ---------------------------------------------------
  free energy    TOTEN  =       -20.82658147 eV

  energy without entropy =      -20.82629272  energy(sigma->0) =      -20.82648522


--------------------------------------------------------------------------------------------------------




--------------------------------------- Iteration      1(   8)  ---------------------------------------


    POTLOK:  cpu time      0.0343: real time      0.0343
    SETDIJ:  cpu time      0.7008: real time      0.7008
     EDDAV:  cpu time      5.7559: real time      5.7705
       DOS:  cpu time      0.0012: real time      0.0012
    CHARGE:  cpu time      0.5258: real time      0.5259
    MIXING:  cpu time      0.0010: real time      0.0010
    --------------------------------------------
      LOOP:  cpu time      7.0190: real time      7.0337

 eigenvalue-minimisations  : 14688
 total energy-change (2. order) : 0.1378635E-02  (-0.4554900E-03)
 number of electron      64.0000003 magnetization       1.0897867
 augmentation part       30.6833631 magnetization       0.6462753

 Broyden mixing:
  rms(total) = 0.83372E-01    rms(broyden)= 0.83363E-01
  rms(prec ) = 0.97240E-01
  weight for this iteration     100.00

 eigenvalues of (default mixing * dielectric matrix)
  average eigenvalue GAMMA=   1.2689
  2.2688  0.9241  0.6137

 Free energy of the ion-electron system (eV)
  ---------------------------------------------------
  alpha Z        PSCENC =       542.73305656
  Ewald energy   TEWEN  =     -8629.09612564
  -Hartree energ DENC   =     -2155.10035516
  -exchange      EXHF   =         0.00000000
  -V(xc)+E(xc)   XCENC  =       328.19043338
  PAW double counting   =      9473.06466673    -9367.66498340
  entropy T*S    EENTRO =        -0.00052742
  eigenvalues    EBANDS =      -699.13082073
  atomic energy  EATOM  =     10486.17945283
  Solvation  Ediel_sol  =         0.00000000
  ---------------------------------------------------
  free energy    TOTEN  =       -20.82520283 eV

  energy without entropy =      -20.82467542  energy(sigma->0) =      -20.82502703


--------------------------------------------------------------------------------------------------------




--------------------------------------- Iteration      1(   9)  ---------------------------------------


    POTLOK:  cpu time      0.0343: real time      0.0343
    SETDIJ:  cpu time      0.8271: real time      0.8272
     EDDAV:  cpu time      6.3101: real time      6.6005
       DOS:  cpu time      0.0013: real time      0.0013
    CHARGE:  cpu time      0.5480: real time      0.5483
    MIXING:  cpu time      0.0012: real time      0.0012
    --------------------------------------------
      LOOP:  cpu time      7.7221: real time      8.0128

 eigenvalue-minimisations  : 14304
 total energy-change (2. order) :-0.6259758E-03  (-0.2605684E-03)
 number of electron      64.0000003 magnetization       1.0682047
 augmentation part       30.6861708 magnetization       0.6841377

 Broyden mixing:
  rms(total) = 0.88007E-02    rms(broyden)= 0.86389E-02
  rms(prec ) = 0.99566E-02
  weight for this iteration     100.00

 eigenvalues of (default mixing * dielectric matrix)
  average eigenvalue GAMMA=   1.2524
  2.5829  0.9499  0.8617  0.6152

 Free energy of the ion-electron system (eV)
  ---------------------------------------------------
  alpha Z        PSCENC =       542.73305656
  Ewald energy   TEWEN  =     -8629.09612564
  -Hartree energ DENC   =     -2153.58476800
  -exchange      EXHF   =         0.00000000
  -V(xc)+E(xc)   XCENC  =       328.11208126
  PAW double counting   =      9576.55990247    -9471.90242559
  entropy T*S    EENTRO =        -0.00049469
  eigenvalues    EBANDS =      -699.82650801
  atomic energy  EATOM  =     10486.17945283
  Solvation  Ediel_sol  =         0.00000000
  ---------------------------------------------------
  free energy    TOTEN  =       -20.82582881 eV

  energy without entropy =      -20.82533412  energy(sigma->0) =      -20.82566391


--------------------------------------------------------------------------------------------------------




--------------------------------------- Iteration      1(  10)  ---------------------------------------


    POTLOK:  cpu time      0.0337: real time      0.0338
    SETDIJ:  cpu time      0.4049: real time      0.4049
     EDDAV:  cpu time      6.2511: real time      6.3217
       DOS:  cpu time      0.0012: real time      0.0012
    CHARGE:  cpu time      0.5259: real time      0.5259
    MIXING:  cpu time      0.0010: real time      0.0010
    --------------------------------------------
      LOOP:  cpu time      7.2179: real time      7.2886

 eigenvalue-minimisations  : 15120
 total energy-change (2. order) :-0.2624456E-03  (-0.2957363E-04)
 number of electron      64.0000003 magnetization       1.0477541
 augmentation part       30.6875346 magnetization       0.6738603

 Broyden mixing:
  rms(total) = 0.84791E-02    rms(broyden)= 0.84488E-02
  rms(prec ) = 0.94157E-02
  weight for this iteration     100.00

 eigenvalues of (default mixing * dielectric matrix)
  average eigenvalue GAMMA=   1.0958
  2.5957  0.9435  0.9435  0.6074  0.3887

 Free energy of the ion-electron system (eV)
  ---------------------------------------------------
  alpha Z        PSCENC =       542.73305656
  Ewald energy   TEWEN  =     -8629.09612564
  -Hartree energ DENC   =     -2153.62691738
  -exchange      EXHF   =         0.00000000
  -V(xc)+E(xc)   XCENC  =       328.11255411
  PAW double counting   =      9581.23081077    -9476.45316589
  entropy T*S    EENTRO =        -0.00045190
  eigenvalues    EBANDS =      -699.90530472
  atomic energy  EATOM  =     10486.17945283
  Solvation  Ediel_sol  =         0.00000000
  ---------------------------------------------------
  free energy    TOTEN  =       -20.82609126 eV

  energy without entropy =      -20.82563935  energy(sigma->0) =      -20.82594062


--------------------------------------------------------------------------------------------------------




--------------------------------------- Iteration      1(  11)  ---------------------------------------


    POTLOK:  cpu time      0.0335: real time      0.0336
    SETDIJ:  cpu time      0.4058: real time      0.4058
     EDDAV:  cpu time      5.9827: real time      5.9860
       DOS:  cpu time      0.0013: real time      0.0013
    CHARGE:  cpu time      0.5260: real time      0.7122
    MIXING:  cpu time      0.0010: real time      0.0010
    --------------------------------------------
      LOOP:  cpu time      6.9504: real time      7.1399

 eigenvalue-minimisations  : 14480
 total energy-change (2. order) :-0.5799809E-04  (-0.2857890E-05)
 number of electron      64.0000003 magnetization       0.9691700
 augmentation part       30.6876057 magnetization       0.6010703

 Broyden mixing:
  rms(total) = 0.68105E-02    rms(broyden)= 0.68026E-02
  rms(prec ) = 0.74882E-02
  weight for this iteration     100.00

 eigenvalues of (default mixing * dielectric matrix)
  average eigenvalue GAMMA=   1.5469
  3.2760  2.5181  1.1717  0.9695  0.6200  0.7262

 Free energy of the ion-electron system (eV)
  ---------------------------------------------------
  alpha Z        PSCENC =       542.73305656
  Ewald energy   TEWEN  =     -8629.09612564
  -Hartree energ DENC   =     -2153.72164928
  -exchange      EXHF   =         0.00000000
  -V(xc)+E(xc)   XCENC  =       328.11555884
  PAW double counting   =      9582.38741306    -9477.51856943
  entropy T*S    EENTRO =        -0.00039518
  eigenvalues    EBANDS =      -699.90489103
  atomic energy  EATOM  =     10486.17945283
  Solvation  Ediel_sol  =         0.00000000
  ---------------------------------------------------
  free energy    TOTEN  =       -20.82614925 eV

  energy without entropy =      -20.82575408  energy(sigma->0) =      -20.82601753


--------------------------------------------------------------------------------------------------------




--------------------------------------- Iteration      1(  12)  ---------------------------------------


    POTLOK:  cpu time      0.0338: real time      0.0338
    SETDIJ:  cpu time      0.4034: real time      0.4975
     EDDAV:  cpu time      5.5712: real time      6.2990
       DOS:  cpu time      0.0013: real time      0.0013
    CHARGE:  cpu time      0.5240: real time      0.5342
    MIXING:  cpu time      0.0011: real time      0.0011
    --------------------------------------------
      LOOP:  cpu time      6.5348: real time      7.3669

 eigenvalue-minimisations  : 14144
 total energy-change (2. order) :-0.6487293E-04  (-0.1532336E-04)
 number of electron      64.0000003 magnetization       0.9649371
 augmentation part       30.6873138 magnetization       0.6173602

 Broyden mixing:
  rms(total) = 0.10336E-02    rms(broyden)= 0.86048E-03
  rms(prec ) = 0.10710E-02
  weight for this iteration     100.00
  WARNING: grid for Broyden might be to small

 eigenvalues of (default mixing * dielectric matrix)
  average eigenvalue GAMMA=   1.4615
  3.5108  2.5227  1.1777  0.9637  0.7465  0.6237  0.6849

 Free energy of the ion-electron system (eV)
  ---------------------------------------------------
  alpha Z        PSCENC =       542.73305656
  Ewald energy   TEWEN  =     -8629.09612564
  -Hartree energ DENC   =     -2154.01050774
  -exchange      EXHF   =         0.00000000
  -V(xc)+E(xc)   XCENC  =       328.12453474
  PAW double counting   =      9584.58638108    -9479.47660659
  entropy T*S    EENTRO =        -0.00015852
  eigenvalues    EBANDS =      -699.86624085
  atomic energy  EATOM  =     10486.17945283
  Solvation  Ediel_sol  =         0.00000000
  ---------------------------------------------------
  free energy    TOTEN  =       -20.82621413 eV

  energy without entropy =      -20.82605560  energy(sigma->0) =      -20.82616129


--------------------------------------------------------------------------------------------------------




--------------------------------------- Iteration      1(  13)  ---------------------------------------


    POTLOK:  cpu time      0.0339: real time      0.0339
    SETDIJ:  cpu time      0.4044: real time      0.4091
     EDDAV:  cpu time      4.9481: real time      5.0650
       DOS:  cpu time      0.0013: real time      0.0013
    CHARGE:  cpu time      0.5219: real time      0.5321
    MIXING:  cpu time      0.0011: real time      0.0011
    --------------------------------------------
      LOOP:  cpu time      5.9106: real time      6.0424

 eigenvalue-minimisations  : 12536
 total energy-change (2. order) :-0.9706478E-05  (-0.4962702E-06)
 number of electron      64.0000003 magnetization       0.9612961
 augmentation part       30.6873498 magnetization       0.6148753

 Broyden mixing:
  rms(total) = 0.60892E-03    rms(broyden)= 0.58467E-03
  rms(prec ) = 0.73964E-03
  weight for this iteration     100.00

 eigenvalues of (default mixing * dielectric matrix)
  average eigenvalue GAMMA=   1.3785
  3.6800  2.5259  1.1750  0.9413  0.7644  0.6177  0.6617  0.6617

 Free energy of the ion-electron system (eV)
  ---------------------------------------------------
  alpha Z        PSCENC =       542.73305656
  Ewald energy   TEWEN  =     -8629.09612564
  -Hartree energ DENC   =     -2153.99816123
  -exchange      EXHF   =         0.00000000
  -V(xc)+E(xc)   XCENC  =       328.12381834
  PAW double counting   =      9584.34813164    -9479.24693378
  entropy T*S    EENTRO =        -0.00014905
  eigenvalues    EBANDS =      -699.86931351
  atomic energy  EATOM  =     10486.17945283
  Solvation  Ediel_sol  =         0.00000000
  ---------------------------------------------------
  free energy    TOTEN  =       -20.82622383 eV

  energy without entropy =      -20.82607478  energy(sigma->0) =      -20.82617415


--------------------------------------------------------------------------------------------------------




--------------------------------------- Iteration      1(  14)  ---------------------------------------


    POTLOK:  cpu time      0.0335: real time      0.0336
    SETDIJ:  cpu time      0.4059: real time      0.4130
     EDDAV:  cpu time      3.8193: real time      4.0105
       DOS:  cpu time      0.0013: real time      0.0013
    CHARGE:  cpu time      0.5249: real time      0.6165
    MIXING:  cpu time      0.0011: real time      0.0011
    --------------------------------------------
      LOOP:  cpu time      4.7859: real time      5.0760

 eigenvalue-minimisations  :  7472
 total energy-change (2. order) :-0.1917590E-05  (-0.7643839E-07)
 number of electron      64.0000003 magnetization       0.9590004
 augmentation part       30.6873864 magnetization       0.6136287

 Broyden mixing:
  rms(total) = 0.27251E-03    rms(broyden)= 0.26462E-03
  rms(prec ) = 0.37468E-03
  weight for this iteration     100.00

 eigenvalues of (default mixing * dielectric matrix)
  average eigenvalue GAMMA=   1.5008
  3.8988  2.5520  2.1955  1.1086  0.9919  0.7398  0.7398  0.6225  0.6584

 Free energy of the ion-electron system (eV)
  ---------------------------------------------------
  alpha Z        PSCENC =       542.73305656
  Ewald energy   TEWEN  =     -8629.09612564
  -Hartree energ DENC   =     -2153.98213387
  -exchange      EXHF   =         0.00000000
  -V(xc)+E(xc)   XCENC  =       328.12293093
  PAW double counting   =      9584.05141792    -9478.96305228
  entropy T*S    EENTRO =        -0.00013714
  eigenvalues    EBANDS =      -699.87163507
  atomic energy  EATOM  =     10486.17945283
  Solvation  Ediel_sol  =         0.00000000
  ---------------------------------------------------
  free energy    TOTEN  =       -20.82622575 eV

  energy without entropy =      -20.82608861  energy(sigma->0) =      -20.82618004


--------------------------------------------------------------------------------------------------------




--------------------------------------- Iteration      1(  15)  ---------------------------------------


    POTLOK:  cpu time      0.0336: real time      0.0337
    SETDIJ:  cpu time      0.4067: real time      0.5020
     EDDAV:  cpu time      4.9641: real time      5.1903
       DOS:  cpu time      0.0013: real time      0.0013
    CHARGE:  cpu time      0.5250: real time      0.5251
    MIXING:  cpu time      0.0012: real time      0.0012
    --------------------------------------------
      LOOP:  cpu time      5.9320: real time      6.2536

 eigenvalue-minimisations  :  7320
 total energy-change (2. order) :-0.1596350E-05  (-0.3018116E-07)
 number of electron      64.0000003 magnetization       0.9580335
 augmentation part       30.6874148 magnetization       0.6132549

 Broyden mixing:
  rms(total) = 0.12572E-03    rms(broyden)= 0.12210E-03
  rms(prec ) = 0.12436E-03
  weight for this iteration     100.00

 eigenvalues of (default mixing * dielectric matrix)
  average eigenvalue GAMMA=   1.4697
  3.8417  2.6156  2.4742  1.0717  0.9755  0.9755  0.8084  0.6817  0.6336  0.6191

 Free energy of the ion-electron system (eV)
  ---------------------------------------------------
  alpha Z        PSCENC =       542.73305656
  Ewald energy   TEWEN  =     -8629.09612564
  -Hartree energ DENC   =     -2153.95684852
  -exchange      EXHF   =         0.00000000
  -V(xc)+E(xc)   XCENC  =       328.12170760
  PAW double counting   =      9583.63629090    -9478.57020951
  entropy T*S    EENTRO =        -0.00012948
  eigenvalues    EBANDS =      -699.87342209
  atomic energy  EATOM  =     10486.17945283
  Solvation  Ediel_sol  =         0.00000000
  ---------------------------------------------------
  free energy    TOTEN  =       -20.82622735 eV

  energy without entropy =      -20.82609786  energy(sigma->0) =      -20.82618419


--------------------------------------------------------------------------------------------------------




--------------------------------------- Iteration      1(  16)  ---------------------------------------


    POTLOK:  cpu time      0.0341: real time      0.0342
    SETDIJ:  cpu time      0.4101: real time      0.4102
     EDDAV:  cpu time      3.8156: real time      3.8713
       DOS:  cpu time      0.0012: real time      0.0012
    --------------------------------------------
      LOOP:  cpu time      4.2610: real time      4.3169

 eigenvalue-minimisations  :  7288
 total energy-change (2. order) :-0.1669300E-06  (-0.4874994E-08)
 number of electron      64.0000003 magnetization       0.9580335
 augmentation part       30.6874148 magnetization       0.6132549

 Free energy of the ion-electron system (eV)
  ---------------------------------------------------
  alpha Z        PSCENC =       542.73305656
  Ewald energy   TEWEN  =     -8629.09612564
  -Hartree energ DENC   =     -2153.95556703
  -exchange      EXHF   =         0.00000000
  -V(xc)+E(xc)   XCENC  =       328.12160377
  PAW double counting   =      9583.60798426    -9478.54370922
  entropy T*S    EENTRO =        -0.00012660
  eigenvalues    EBANDS =      -699.87279645
  atomic energy  EATOM  =     10486.17945283
  Solvation  Ediel_sol  =         0.00000000
  ---------------------------------------------------
  free energy    TOTEN  =       -20.82622751 eV

  energy without entropy =      -20.82610091  energy(sigma->0) =      -20.82618531


--------------------------------------------------------------------------------------------------------




 average (electrostatic) potential at core
  the test charge radii are     1.0504
  (the norm of the test charge is              1.0000)
       1 -74.6004       2 -74.6004       3 -74.6004       4 -74.6004
 
 
 
 E-fermi :   9.3371     XC(G=0): -13.2455     alpha+bet :-16.2254

 val. band max:        9.3365822323   @ k =   0.4167   0.0833   0.0833
 cond. band min:       9.3376135116   @ k =   0.4167   0.4167   0.4167
 fundamental gap:      0.0010312793
 Fermi energy:         9.3370614458

 spin component 1

 k-point     1 :       0.0000    0.0000    0.0000
  band No.  band energies     occupation 
      1     -40.7594      1.00000
      2     -40.7594      1.00000
      3     -40.7594      1.00000
      4     -40.5413      1.00000
      5     -40.5413      1.00000
      6     -40.5413      1.00000
      7     -40.5413      1.00000
      8     -40.5413      1.00000
      9     -40.5413      1.00000
     10     -40.3979      1.00000
     11     -40.3979      1.00000
     12     -40.3979      1.00000
     13       2.2990      1.00000
     14       4.0282      1.00000
     15       4.0282      1.00000
     16       4.0282      1.00000
     17       4.2753      1.00000
     18       4.2753      1.00000
     19       4.2753      1.00000
     20       6.4628      1.00000
     21       6.4628      1.00000
     22       6.4628      1.00000
     23       8.0478      1.00000
     24       8.0478      1.00000
     25       9.1831      1.02586
     26       9.1831      1.02586
     27       9.1831      1.02586
     28       9.4821     -0.02981
     29       9.4821     -0.02981
     30       9.4821     -0.02981
     31       9.4821     -0.02981
     32       9.4821     -0.02981
     33       9.4821     -0.02981
     34      12.6561      0.00000
     35      12.6561      0.00000
     36      12.6561      0.00000
     37      19.8451      0.00000
     38      19.8451      0.00000
     39      19.8451      0.00000
     40      22.4157      0.00000

 k-point     2 :       0.0833    0.0000    0.0000
  band No.  band energies     occupation 
      1     -40.7559      1.00000
      2     -40.7559      1.00000
      3     -40.7537      1.00000
      4     -40.5451      1.00000
      5     -40.5451      1.00000
      6     -40.5415      1.00000
      7     -40.5415      1.00000
      8     -40.5389      1.00000
      9     -40.5389      1.00000
     10     -40.4044      1.00000
     11     -40.4004      1.00000
     12     -40.4004      1.00000
     13       2.3826      1.00000
     14       4.0676      1.00000
     15       4.0814      1.00000
     16       4.0814      1.00000
     17       4.3068      1.00000
     18       4.3229      1.00000
     19       4.3229      1.00000
     20       6.4178      1.00000
     21       6.4999      1.00000
     22       6.4999      1.00000
     23       8.0013      1.00000
     24       8.0657      1.00000
     25       9.1192      1.00430
     26       9.1192      1.00430
     27       9.1621      1.01642
     28       9.2059      1.03443
     29       9.2059      1.03443
     30       9.4057      0.04493
     31       9.4057      0.04493
     32       9.4822     -0.02977
     33       9.4822     -0.02977
     34      12.2416      0.00000
     35      12.9900      0.00000
     36      12.9900      0.00000
     37      19.8275      0.00000
     38      19.8275      0.00000
     39      20.3608      0.00000
     40      22.2477      0.00000

 k-point     3 :       0.1667    0.0000    0.0000
  band No.  band energies     occupation 
      1     -40.7450      1.00000
      2     -40.7450      1.00000
      3     -40.7363      1.00000
      4     -40.5561      1.00000
      5     -40.5561      1.00000
      6     -40.5420      1.00000
      7     -40.5420      1.00000
      8     -40.5317      1.00000
      9     -40.5317      1.00000
     10     -40.4231      1.00000
     11     -40.4076      1.00000
     12     -40.4076      1.00000
     13       2.6287      1.00000
     14       4.1791      1.00000
     15       4.2346      1.00000
     16       4.2346      1.00000
     17       4.3999      1.00000
     18       4.4655      1.00000
     19       4.4655      1.00000
     20       6.2880      1.00000
     21       6.6104      1.00000
     22       6.6104      1.00000
     23       7.8693      1.00000
     24       8.1182      1.00000
     25       8.5900      1.00000
     26       8.5900      1.00000
     27       8.9355      1.00000
     28       8.9355      1.00000
     29       9.1007      1.00209
     30       9.1909      1.02930
     31       9.1909      1.02930
     32       9.4825     -0.02961
     33       9.4825     -0.02961
     34      11.2610     -0.00000
     35      13.7778      0.00000
     36      13.7778      0.00000
[...]
     38      17.2374      0.00000
     39      17.2374      0.00000
     40      17.2374      0.00000

 k-point    81 :       0.4167    0.4167    0.4167
  band No.  band energies     occupation 
      1     -40.5611      1.00000
      2     -40.5611      1.00000
      3     -40.5611      1.00000
      4     -40.5467      1.00000
      5     -40.2584      1.00000
      6     -40.2584      1.00000
      7     -40.2584      1.00000
      8     -40.2486      1.00000
      9     -40.2486      1.00000
     10     -40.2486      1.00000
     11     -40.2388      1.00000
     12     -40.2388      1.00000
     13       4.2618      1.00000
     14       4.3883      1.00000
     15       4.3883      1.00000
     16       4.3883      1.00000
     17       6.4637      1.00000
     18       6.4637      1.00000
     19       6.4637      1.00000
     20       6.6502      1.00000
     21       6.6502      1.00000
     22       6.7463      1.00000
     23       6.7463      1.00000
     24       6.7463      1.00000
     25       8.4238      1.00000
     26       8.4238      1.00000
     27       8.4238      1.00000
     28       9.2238      1.03397
     29       9.2238      1.03397
     30       9.3576      0.33022
     31       9.4034      0.05344
     32       9.4034      0.05344
     33       9.4034      0.05344
     34      11.3165     -0.00000
     35      11.3165     -0.00000
     36      11.3165     -0.00000
     37      16.7171      0.00000
     38      16.7171      0.00000
     39      16.7171      0.00000
     40      17.8941      0.00000

 k-point    82 :       0.5000    0.4167    0.4167
  band No.  band energies     occupation 
      1     -40.5658      1.00000
      2     -40.5658      1.00000
      3     -40.5587      1.00000
      4     -40.5587      1.00000
      5     -40.2560      1.00000
      6     -40.2560      1.00000
      7     -40.2463      1.00000
      8     -40.2463      1.00000
      9     -40.2438      1.00000
     10     -40.2438      1.00000
     11     -40.2437      1.00000
     12     -40.2437      1.00000
     13       4.2824      1.00000
     14       4.2824      1.00000
     15       4.3450      1.00000
     16       4.3450      1.00000
     17       6.4929      1.00000
     18       6.4929      1.00000
     19       6.5799      1.00000
     20       6.5799      1.00000
     21       6.6608      1.00000
     22       6.6608      1.00000
     23       6.6990      1.00000
     24       6.6990      1.00000
     25       8.6468      1.00000
     26       8.6468      1.00000
     27       8.8581      1.00000
     28       8.8581      1.00000
     29       9.3652      0.27231
     30       9.3652      0.27231
     31       9.3725      0.21968
     32       9.3725      0.21968
     33      10.3045     -0.00000
     34      10.3045     -0.00000
     35      11.2613     -0.00000
     36      11.2613     -0.00000
     37      16.5362      0.00000
     38      16.5362      0.00000
     39      17.2027      0.00000
     40      17.2027      0.00000

 k-point    83 :       0.5000    0.5000    0.4167
  band No.  band energies     occupation 
      1     -40.5671      1.00000
      2     -40.5671      1.00000
      3     -40.5671      1.00000
      4     -40.5671      1.00000
      5     -40.2475      1.00000
      6     -40.2475      1.00000
      7     -40.2475      1.00000
      8     -40.2475      1.00000
      9     -40.2426      1.00000
     10     -40.2426      1.00000
     11     -40.2426      1.00000
     12     -40.2426      1.00000
     13       4.2681      1.00000
     14       4.2681      1.00000
     15       4.2681      1.00000
     16       4.2681      1.00000
     17       6.5695      1.00000
     18       6.5695      1.00000
     19       6.5695      1.00000
     20       6.5695      1.00000
     21       6.6315      1.00000
     22       6.6315      1.00000
     23       6.6315      1.00000
     24       6.6315      1.00000
     25       9.0332      1.00008
     26       9.0332      1.00008
     27       9.0332      1.00008
     28       9.0332      1.00008
     29       9.3377      0.49478
     30       9.3377      0.49478
     31       9.3377      0.49478
     32       9.3377      0.49478
     33      10.6396     -0.00000
     34      10.6396     -0.00000
     35      10.6396     -0.00000
     36      10.6396     -0.00000
     37      16.7183      0.00000
     38      16.7183      0.00000
     39      16.7183      0.00000
     40      16.7183      0.00000

 k-point    84 :       0.5000    0.5000    0.5000
  band No.  band energies     occupation 
      1     -40.5721      1.00000
      2     -40.5721      1.00000
      3     -40.5721      1.00000
      4     -40.5721      1.00000
      5     -40.2426      1.00000
      6     -40.2426      1.00000
      7     -40.2426      1.00000
      8     -40.2426      1.00000
      9     -40.2426      1.00000
     10     -40.2426      1.00000
     11     -40.2426      1.00000
     12     -40.2426      1.00000
     13       4.2205      1.00000
     14       4.2205      1.00000
     15       4.2205      1.00000
     16       4.2205      1.00000
     17       6.5933      1.00000
     18       6.5933      1.00000
     19       6.5933      1.00000
     20       6.5933      1.00000
     21       6.5933      1.00000
     22       6.5933      1.00000
     23       6.5933      1.00000
     24       6.5933      1.00000
     25       9.3923      0.10251
     26       9.3923      0.10251
     27       9.3923      0.10251
     28       9.3923      0.10251
     29       9.3923      0.10251
     30       9.3923      0.10251
     31       9.3923      0.10251
     32       9.3923      0.10251
     33      10.3573     -0.00000
     34      10.3573     -0.00000
     35      10.3573     -0.00000
     36      10.3573     -0.00000
     37      16.5439      0.00000
     38      16.5439      0.00000
     39      16.5439      0.00000
     40      16.5439      0.00000


--------------------------------------------------------------------------------------------------------


 soft charge-density along one line, spin component            1
         0         1         2         3         4         5         6         7         8         9
 total charge-density along one line
 
 soft charge-density along one line, spin component            2
         0         1         2         3         4         5         6         7         8         9
 total charge-density along one line
 
 pseudopotential strength for first ion, spin component:            1
-37.305  -0.000   0.000   8.282   0.000  -0.000   0.000  -0.000
 -0.000 -37.305  -0.000   0.000   8.282   0.000   0.000  -0.000
  0.000  -0.000 -37.305  -0.000   0.000   8.282  -0.000   0.000
  8.282   0.000  -0.000   7.865  -0.000   0.000   0.000   0.000
  0.000   8.282   0.000  -0.000   7.865  -0.000   0.000   0.000
 -0.000   0.000   8.282   0.000  -0.000   7.865   0.000   0.000
  0.000   0.000  -0.000   0.000   0.000   0.000  -2.361  -0.000
 -0.000  -0.000   0.000   0.000   0.000   0.000  -0.000  -2.361
  0.000  -0.000  -0.000  -0.000   0.000   0.000  -0.000   0.000
  0.000   0.000  -0.000   0.000  -0.000   0.000  -0.000  -0.000
  0.000  -0.000   0.000  -0.000   0.000  -0.000  -0.000   0.000
  0.000   0.000  -0.000   0.000   0.000   0.000  -2.018  -0.000
 -0.000  -0.000   0.000   0.000   0.000   0.000  -0.000  -2.018
  0.000  -0.000  -0.000  -0.000   0.000   0.000  -0.000   0.000
  0.000   0.000  -0.000   0.000  -0.000   0.000  -0.000  -0.000
  0.000  -0.000   0.000  -0.000   0.000  -0.000  -0.000   0.000
  0.000   0.000  -0.000   0.000   0.000   0.000  -0.000   0.000
  0.000   0.000  -0.000   0.000   0.000   0.000  -0.000   0.000
 pseudopotential strength for first ion, spin component:            2
-37.190  -0.000   0.000   8.223   0.000  -0.000   0.000  -0.000
 -0.000 -37.190  -0.000   0.000   8.223   0.000  -0.000  -0.000
  0.000  -0.000 -37.190  -0.000   0.000   8.223  -0.000  -0.000
  8.223   0.000  -0.000   7.881  -0.000   0.000   0.000   0.000
  0.000   8.223   0.000  -0.000   7.881  -0.000  -0.000   0.000
 -0.000   0.000   8.223   0.000  -0.000   7.881   0.000  -0.000
  0.000  -0.000  -0.000   0.000  -0.000   0.000  -2.238  -0.000
 -0.000  -0.000  -0.000   0.000   0.000  -0.000  -0.000  -2.238
  0.000  -0.000  -0.000  -0.000   0.000   0.000  -0.000   0.000
 -0.000   0.000  -0.000  -0.000  -0.000   0.000  -0.000  -0.000
  0.000  -0.000   0.000  -0.000   0.000  -0.000  -0.000   0.000
  0.000  -0.000  -0.000   0.000   0.000   0.000  -1.881  -0.000
 -0.000  -0.000  -0.000   0.000   0.000   0.000  -0.000  -1.881
  0.000  -0.000  -0.000  -0.000   0.000   0.000  -0.000   0.000
 -0.000   0.000  -0.000   0.000  -0.000   0.000  -0.000  -0.000
  0.000  -0.000   0.000  -0.000   0.000  -0.000  -0.000   0.000
  0.000   0.000  -0.000   0.000   0.000   0.000  -0.000   0.000
  0.000   0.000  -0.000   0.000   0.000   0.000  -0.000   0.000
 total augmentation occupancy for first ion, spin component:            1
  1.998   0.000   0.000  -0.014  -0.000  -0.000   0.000  -0.000  -0.000  -0.000  -0.000   0.000  -0.000   0.000   0.000  -0.000
  0.000   1.998   0.000  -0.000  -0.014  -0.000   0.000  -0.000   0.000   0.000   0.000   0.000   0.000  -0.000  -0.000   0.000
  0.000   0.000   1.998  -0.000  -0.000  -0.014   0.000  -0.000  -0.000   0.000  -0.000   0.000  -0.000   0.000   0.000   0.000
 -0.014  -0.000  -0.000   0.104   0.000   0.000   0.000  -0.000  -0.000   0.000   0.000   0.000  -0.000   0.000  -0.000   0.000
 -0.000  -0.014  -0.000   0.000   0.104   0.000   0.000  -0.000  -0.000   0.000  -0.000  -0.000   0.000  -0.000   0.000   0.000
 -0.000  -0.000  -0.014   0.000   0.000   0.104  -0.000  -0.000   0.000   0.000   0.000  -0.000   0.000   0.000  -0.000  -0.000
  0.000   0.000   0.000   0.000   0.000  -0.000   2.756   0.000  -0.000   0.000   0.000  -0.736  -0.000   0.000  -0.000  -0.000
 -0.000  -0.000  -0.000  -0.000  -0.000  -0.000   0.000   2.756   0.000   0.000  -0.000  -0.000  -0.736  -0.000  -0.000   0.000
  0.000  -0.000  -0.000   0.000  -0.000   0.000  -0.000   0.000   2.528   0.000   0.000   0.000  -0.000  -0.544  -0.000  -0.000
 -0.000   0.000   0.000   0.000   0.000   0.000   0.000   0.000   0.000   2.756   0.000  -0.000  -0.000  -0.000  -0.736  -0.000
  0.000   0.000   0.000   0.000  -0.000  -0.000   0.000  -0.000   0.000   0.000   2.528  -0.000   0.000  -0.000  -0.000  -0.544
  0.000   0.000   0.000   0.000  -0.000  -0.000  -0.736  -0.000   0.000  -0.000  -0.000   0.471   0.000  -0.000   0.000   0.000
 -0.000   0.000  -0.000  -0.000   0.000   0.000  -0.000  -0.736  -0.000  -0.000   0.000   0.000   0.471   0.000   0.000  -0.000
  0.000   0.000   0.000   0.000   0.000   0.000   0.000  -0.000  -0.544  -0.000  -0.000  -0.000   0.000   0.427   0.000   0.000
  0.000  -0.000   0.000  -0.000   0.000  -0.000  -0.000  -0.000  -0.000  -0.736  -0.000   0.000   0.000   0.000   0.471   0.000
  0.000  -0.000   0.000  -0.000  -0.000  -0.000  -0.000   0.000  -0.000  -0.000  -0.544   0.000  -0.000   0.000   0.000   0.427
 -0.000   0.000   0.000   0.000  -0.000  -0.000   0.000   0.000   0.000   0.000   0.000   0.000  -0.000   0.000  -0.000   0.000
 -0.000   0.000  -0.000  -0.000   0.000   0.000   0.000   0.000   0.000  -0.000  -0.000  -0.000  -0.000   0.000   0.000  -0.000
 total augmentation occupancy for first ion, spin component:            2
  0.000   0.000   0.000   0.000   0.000   0.000   0.000  -0.000   0.000  -0.000  -0.000   0.000   0.000  -0.000  -0.000   0.000
  0.000   0.000   0.000   0.000   0.000  -0.000   0.000  -0.000  -0.000   0.000  -0.000   0.000  -0.000  -0.000   0.000  -0.000
  0.000   0.000   0.000   0.000  -0.000   0.000   0.000   0.000  -0.000  -0.000  -0.000   0.000  -0.000  -0.000   0.000   0.000
  0.000   0.000   0.000  -0.002  -0.000  -0.000  -0.000  -0.000   0.000   0.000   0.000   0.000   0.000  -0.000   0.000   0.000
  0.000   0.000  -0.000  -0.000  -0.002  -0.000   0.000   0.000   0.000   0.000   0.000  -0.000  -0.000  -0.000   0.000   0.000
  0.000  -0.000   0.000  -0.000  -0.000  -0.002  -0.000   0.000  -0.000   0.000   0.000   0.000   0.000   0.000  -0.000  -0.000
  0.000   0.000   0.000  -0.000   0.000  -0.000  -0.039  -0.000   0.000  -0.000  -0.000   0.041   0.000  -0.000   0.000   0.000
 -0.000  -0.000   0.000  -0.000   0.000   0.000  -0.000  -0.039  -0.000  -0.000   0.000   0.000   0.041   0.000   0.000  -0.000
  0.000  -0.000  -0.000  -0.000   0.000   0.000   0.000  -0.000  -0.029  -0.000  -0.000  -0.000   0.000   0.024   0.000   0.000
 -0.000   0.000  -0.000   0.000   0.000   0.000  -0.000  -0.000  -0.000  -0.039  -0.000   0.000   0.000   0.000   0.041   0.000
  0.000  -0.000  -0.000  -0.000   0.000   0.000  -0.000   0.000  -0.000  -0.000  -0.029   0.000  -0.000   0.000   0.000   0.024
  0.000   0.000   0.000   0.000  -0.000   0.000   0.041   0.000  -0.000   0.000   0.000   0.025   0.000  -0.000   0.000   0.000
  0.000  -0.000  -0.000   0.000  -0.000   0.000   0.000   0.041   0.000   0.000  -0.000   0.000   0.025   0.000   0.000  -0.000
  0.000  -0.000  -0.000  -0.000  -0.000  -0.000  -0.000   0.000   0.024   0.000   0.000  -0.000   0.000   0.008   0.000   0.000
 -0.000   0.000   0.000   0.000   0.000  -0.000   0.000   0.000   0.000   0.041   0.000   0.000   0.000   0.000   0.025   0.000
  0.000   0.000   0.000   0.000  -0.000   0.000   0.000  -0.000   0.000   0.000   0.024   0.000  -0.000   0.000   0.000   0.008
  0.000  -0.000  -0.000   0.000   0.000   0.000  -0.000  -0.000   0.000  -0.000  -0.000   0.000  -0.000   0.000   0.000   0.000
 -0.000  -0.000   0.000   0.000  -0.000   0.000  -0.000  -0.000   0.000   0.000   0.000  -0.000  -0.000   0.000   0.000  -0.000


------------------------ aborting loop because EDIFF is reached ----------------------------------------





 total charge

# of ion       s       p       d       tot
------------------------------------------
    1        0.315   6.173   7.978  14.466
    2        0.315   6.173   7.978  14.466
    3        0.315   6.173   7.978  14.466
    4        0.315   6.173   7.978  14.466
--------------------------------------------------
tot          1.259  24.691  31.913  57.863



 magnetization (x)

# of ion       s       p       d       tot
------------------------------------------
    1       -0.002  -0.003   0.254   0.249
    2       -0.002  -0.003   0.254   0.249
    3       -0.002  -0.003   0.254   0.249
    4       -0.002  -0.003   0.254   0.249
--------------------------------------------------
tot         -0.007  -0.012   1.016   0.998
 
    CHARGE:  cpu time      0.5353: real time      0.5353
    FORLOC:  cpu time      0.0006: real time      0.0006
    FORNL :  cpu time      0.7294: real time      0.7295
    FORCOR:  cpu time      0.4370: real time      0.4371
    FORHAR:  cpu time      0.0037: real time      0.0037
    MIXING:  cpu time      0.0011: real time      0.0011
    OFIELD:  cpu time      0.0000: real time      0.0000

 ---------------------------------------------------------------------------------------------

         DFTD3 V3.0 Rev 1        
 DF pbe       
 parameters
 k1-k3        =   16.0000    1.3333   -4.0000
 Edisp (eV)   -2.62093

 E6    (eV) :    -1.4629
 E8    (eV) :    -1.1581
 % E8        : 44.19
    FORVDW:  cpu time      0.0074: real time      0.0074

 VOLUME and BASIS-vectors are now :
 -----------------------------------------------------------------------------
  energy-cutoff  :      450.00
  volume of cell :       60.11
      direct lattice vectors                 reciprocal lattice vectors
     3.917301575  0.000000000  0.000000000     0.255277767 -0.000000000  0.000000000
     0.000000000  3.917301575  0.000000000     0.000000000  0.255277767  0.000000000
     0.000000000  0.000000000  3.917301575    -0.000000000 -0.000000000  0.255277767

  length of vectors
     3.917301575  3.917301575  3.917301575     0.255277767  0.255277767  0.255277767


 FORCES acting on ions
    electron-ion (+dipol)            ewald-force                    non-local-force                 convergence-correction
 -----------------------------------------------------------------------------------------------
   -.561E-13 -.660E-13 -.985E-13   -.366E-13 -.348E-13 0.417E-14   0.157E-25 0.258E-25 0.517E-25   0.330E-13 -.258E-13 -.210E-13
   -.509E-13 0.846E-12 0.805E-12   -.388E-13 0.552E-14 0.106E-13   0.419E-25 0.000E+00 0.792E-25   0.691E-13 -.236E-13 0.397E-13
   0.858E-12 -.605E-13 0.150E-10   0.424E-13 -.761E-14 0.104E-13   -.131E-25 -.142E-24 -.194E-25   -.799E-13 -.408E-13 0.537E-13
   0.860E-12 0.697E-11 0.446E-11   0.402E-13 0.327E-13 -.238E-13   0.160E-25 0.000E+00 0.000E+00   -.836E-13 -.573E-13 -.196E-13
 -----------------------------------------------------------------------------------------------
   0.161E-11 0.769E-11 0.202E-10   0.725E-14 -.417E-14 0.136E-14   0.605E-25 -.116E-24 0.111E-24   -.614E-13 -.147E-12 0.528E-13
 
 
 POSITION                                       TOTAL-FORCE (eV/Angst)
 -----------------------------------------------------------------------------------
      0.00000      0.00000      0.00000         0.000000      0.000000      0.000000
      0.00000      1.95865      1.95865        -0.000000      0.000000     -0.000000
      1.95865      0.00000      1.95865         0.000000     -0.000000      0.000000
      1.95865      1.95865      0.00000        -0.000000     -0.000000     -0.000000
 -----------------------------------------------------------------------------------
    total drift:                                0.000000      0.000000      0.000000


--------------------------------------------------------------------------------------------------------



  FREE ENERGIE OF THE ION-ELECTRON SYSTEM (eV)
  ---------------------------------------------------
  free  energy   TOTEN  =       -23.44715281 eV

  energy  without entropy=      -23.44702621  energy(sigma->0) =      -23.44711061
 


--------------------------------------------------------------------------------------------------------


    POTLOK:  cpu time      0.4383: real time      0.4383


--------------------------------------------------------------------------------------------------------


     LOOP+:  cpu time    102.2987: real time    105.0046
    4ORBIT:  cpu time      0.0000: real time      0.0000



 total charge

# of ion       s       p       d       tot
------------------------------------------
    1        0.315   6.173   7.978  14.466
    2        0.315   6.173   7.978  14.466
    3        0.315   6.173   7.978  14.466
    4        0.315   6.173   7.978  14.466
--------------------------------------------------
tot          1.259  24.691  31.913  57.863



 magnetization (x)

# of ion       s       p       d       tot
------------------------------------------
    1       -0.002  -0.003   0.254   0.249
    2       -0.002  -0.003   0.254   0.249
    3       -0.002  -0.003   0.254   0.249
    4       -0.002  -0.003   0.254   0.249
--------------------------------------------------
tot         -0.007  -0.012   1.016   0.998
 

 total amount of memory used by VASP MPI-rank0    95701. kBytes
=======================================================================

   base      :      30000. kBytes
   nonl-proj :      16197. kBytes
   fftplans  :       6611. kBytes
   grid      :       5030. kBytes
   one-center:        124. kBytes
   wavefun   :      37739. kBytes
 
  
  
 General timing and accounting informations for this job:
 ========================================================
  
                  Total CPU time used (sec):      103.953
                            User time (sec):      102.592
                          System time (sec):        1.361
                         Elapsed time (sec):      106.696
  
                   Maximum memory used (kb):      383084.
                   Average memory used (kb):          N/A
  
                          Minor page faults:       462015
                          Major page faults:           12
                 Voluntary context switches:          214
