       N       E                     dE             d eps       ncg     rms          rms(c)
DAV:   1     0.589175723822E+03    0.58918E+03   -0.34265E+04  7416   0.172E+03
DAV:   2    -0.747437383640E+01   -0.59665E+03   -0.57469E+03  8352   0.491E+02
DAV:   3    -0.405641769798E+02   -0.33090E+02   -0.32735E+02  7916   0.120E+02
DAV:   4    -0.409892738836E+02   -0.42510E+00   -0.42446E+00  7940   0.147E+01
DAV:   5    -0.409939972653E+02   -0.47234E-02   -0.47229E-02  7724   0.156E+00    0.281E+01
DAV:   6    -0.356359495141E+02    0.53580E+01   -0.51601E+01  7720   0.655E+01    0.156E+01
DAV:   7    -0.321919932540E+02    0.34440E+01   -0.15693E+01  7564   0.360E+01    0.539E+00
DAV:   8    -0.321407398416E+02    0.51253E-01   -0.12742E+00  7624   0.663E+00    0.301E+00
DAV:   9    -0.321142677689E+02    0.26472E-01   -0.13035E-01  7832   0.325E+00    0.846E-01
DAV:  10    -0.321111734330E+02    0.30943E-02   -0.17892E-02  7664   0.128E+00    0.273E-01
DAV:  11    -0.321111940673E+02   -0.20634E-04   -0.20077E-03  7676   0.362E-01    0.118E-01
DAV:  12    -0.321111536601E+02    0.40407E-04   -0.21622E-04  7764   0.962E-02    0.522E-02
DAV:  13    -0.321111692827E+02   -0.15623E-04   -0.79794E-05  7660   0.530E-02    0.125E-02
DAV:  14    -0.321111708083E+02   -0.15255E-05   -0.27402E-06  6072   0.125E-02    0.483E-03
DAV:  15    -0.321111704678E+02    0.34049E-06   -0.75063E-07  4528   0.718E-03
   1 F= -.33525190E+02 E0= -.33522678E+02  d E =-.335252E+02  mag=    -0.3280
       N       E                     dE             d eps       ncg     rms          rms(c)
DAV:   1    -0.336429991861E+02   -0.15318E+01   -0.23623E+01  7580   0.423E+01    0.878E+00
DAV:   2    -0.327858470147E+02    0.85715E+00   -0.71996E+00  7528   0.266E+01    0.605E+00
DAV:   3    -0.321925182258E+02    0.59333E+00   -0.11501E+00  7648   0.111E+01    0.159E+00
DAV:   4    -0.321687483741E+02    0.23770E-01   -0.40152E-01  7416   0.390E+00    0.624E-01
DAV:   5    -0.321650035309E+02    0.37448E-02   -0.26865E-02  7720   0.108E+00    0.290E-01
DAV:   6    -0.321648802611E+02    0.12327E-03   -0.29253E-03  7800   0.382E-01    0.140E-01
DAV:   7    -0.321647228285E+02    0.15743E-03   -0.72579E-04  7572   0.163E-01    0.404E-02
DAV:   8    -0.321647263444E+02   -0.35159E-05   -0.11767E-04  7688   0.687E-02    0.173E-02
DAV:   9    -0.321647270654E+02   -0.72100E-06   -0.73890E-06  7660   0.197E-02
   2 F= -.33522377E+02 E0= -.33519458E+02  d E =0.281279E-02  mag=    -0.5873
       N       E                     dE             d eps       ncg     rms          rms(c)
DAV:   1    -0.325515786367E+02   -0.38685E+00   -0.63723E+00  7560   0.216E+01    0.452E+00
DAV:   2    -0.322774712078E+02    0.27411E+00   -0.16055E+00  7520   0.131E+01    0.267E+00
DAV:   3    -0.321656916735E+02    0.11178E+00   -0.24620E-01  7676   0.524E+00    0.855E-01
DAV:   4    -0.321558585496E+02    0.98331E-02   -0.82892E-02  7416   0.197E+00    0.271E-01
DAV:   5    -0.321555267263E+02    0.33182E-03   -0.50552E-03  7808   0.484E-01    0.150E-01
DAV:   6    -0.321556034188E+02   -0.76693E-04   -0.42145E-04  7896   0.147E-01    0.680E-02
DAV:   7    -0.321555708706E+02    0.32548E-04   -0.18507E-04  7588   0.814E-02    0.157E-02
DAV:   8    -0.321555737890E+02   -0.29184E-05   -0.94148E-06  7768   0.205E-02    0.675E-03
DAV:   9    -0.321555747497E+02   -0.96066E-06   -0.54699E-07  4296   0.593E-03
   3 F= -.33542531E+02 E0= -.33539750E+02  d E =-.173416E-01  mag=    -0.4063
       N       E                     dE             d eps       ncg     rms          rms(c)
DAV:   1    -0.321553520830E+02    0.22171E-03   -0.47163E-04  7612   0.187E-01    0.387E-02
DAV:   2    -0.321553304560E+02    0.21627E-04   -0.11995E-04  7544   0.114E-01    0.236E-02
DAV:   3    -0.321553231687E+02    0.72873E-05   -0.17939E-05  7648   0.452E-02    0.706E-03
DAV:   4    -0.321553228921E+02    0.27660E-06   -0.63150E-06  7264   0.165E-02    0.238E-03
DAV:   5    -0.321553232297E+02   -0.33762E-06   -0.42603E-07  3648   0.455E-03
   4 F= -.33542532E+02 E0= -.33539755E+02  d E =-.173425E-01  mag=    -0.4051
       N       E                     dE             d eps       ncg     rms          rms(c)
DAV:   1    -0.321557141635E+02   -0.39127E-03   -0.38128E-02  7216   0.128E+00    0.130E-01
DAV:   2    -0.321554811652E+02    0.23300E-03   -0.65617E-04  7696   0.182E-01    0.633E-02
DAV:   3    -0.321554163425E+02    0.64823E-04   -0.10765E-04  7584   0.908E-02    0.252E-02
DAV:   4    -0.321554068748E+02    0.94677E-05   -0.26999E-05  7796   0.508E-02    0.936E-03
DAV:   5    -0.321554073796E+02   -0.50477E-06   -0.33180E-06  6360   0.128E-02
   5 F= -.33542698E+02 E0= -.33539918E+02  d E =-.165657E-03  mag=    -0.4044
