135
Lattice="12.21437083684855 0.0 7e-16 1.7e-15 10.811692246786171 7e-16 0.0 0.0 30.687574482242482" Properties=species:S:1:pos:R:3:move_mask:L:1:momenta:R:3:forces:R:3 idx=3266 E_MACE=-714.8013230010575 d_min=1.4272963128070713 d_reactive=3.2745299749262413 E=-714.8013230010575 converged=T n_steps=126 d_z=1.3420666280833675 fingerprint="_JSON [1.12, 1.12, 1.21, 1.22, 1.91, 2.04, 2.05, 3.47, 4.48, 4.81, 5.35, 6.89, 7.43, 7.46, 7.66, 7.83, 8.14, 8.81, 9.33, 11.58, 12.12]" dE_rel_meV=1328.5323870170487 energy=-714.8013230010575 stress="-0.00021738332860913624 -1.8890495215762095e-05 2.43973836455765e-05 -1.8890495215762095e-05 -0.0012903408959794322 -0.00026349440452922215 2.43973836455765e-05 -0.00026349440452922215 -0.0036094614638992294" pbc="T T T"
O        3.05560022       6.67167952      12.16499554  T       0.00000000       0.00000000       0.00000000       0.00147120       0.01238427      -0.00102229
O        6.10708102       1.26389533      12.17736660  T       0.00000000       0.00000000       0.00000000      -0.00294358       0.00159483       0.00448161
O        6.09980507       4.02789505      12.20602246  T       0.00000000       0.00000000       0.00000000      -0.00570662      -0.00728843       0.00156441
O        6.10737440       1.33162893       9.16790207  T       0.00000000       0.00000000       0.00000000      -0.00624449       0.00695707      -0.00293059
O        6.10319709       4.03067413       9.17972342  T       0.00000000       0.00000000       0.00000000      -0.00523189      -0.00308540      -0.00532258
O        6.10718343       1.35539432       6.10801899  F       0.00000000       0.00000000       0.00000000      -0.00250143      -0.00125322       0.06217509
O        6.10718534       4.05045008       6.10801162  F       0.00000000       0.00000000       0.00000000      -0.00588024      -0.04262645       0.11841654
O        6.10718542       1.35146153       3.02679635  F       0.00000000       0.00000000       0.00000000      -0.00026373      -0.47129864       0.31273720
O        6.10718542       4.05438459       3.02679635  F       0.00000000       0.00000000       0.00000000      -0.00020159       0.47115624       0.31324008
O        9.17480891       9.47952832      12.17425996  T       0.00000000       0.00000000       0.00000000       0.01525926       0.00498494       0.00010713
O        3.03928718       9.48259444      12.18958301  T       0.00000000       0.00000000       0.00000000      -0.01975419       0.00630926       0.00514571
O        3.05442064       6.74955451       9.16826588  T       0.00000000       0.00000000       0.00000000      -0.00384785       0.01075065       0.00490319
O        3.05291474       9.44128027       9.18646838  T       0.00000000       0.00000000       0.00000000       0.00687385       0.01821579      -0.01219397
O        3.05359341       6.76124998       6.10801980  F       0.00000000       0.00000000       0.00000000       0.00633654       0.02454980       0.08276132
O        3.05359360       9.45629444       6.10802097  F       0.00000000       0.00000000       0.00000000       0.00414213      -0.02832754       0.11084702
O        3.05359271       6.75730765       3.02679635  F       0.00000000       0.00000000       0.00000000       0.00020754      -0.47190694       0.31339164
O        3.05359271       9.46023072       3.02679635  F       0.00000000       0.00000000       0.00000000       0.00010236       0.47137215       0.31205515
O        3.05659774       1.29293727      12.16777405  T       0.00000000       0.00000000       0.00000000      -0.01323222       0.02292669      -0.01298922
O        6.10718542       9.46023072       3.02679635  F       0.00000000       0.00000000       0.00000000      -0.00020183       0.47084382       0.31403982
O        6.10718542       6.75730765       3.02679635  F       0.00000000       0.00000000       0.00000000      -0.00013989      -0.47198209       0.31460547
O        6.10718028       9.45628983       6.10801454  F       0.00000000       0.00000000       0.00000000      -0.00061794      -0.00475542       0.09302980
O        6.10718760       6.76124043       6.10802244  F       0.00000000       0.00000000       0.00000000      -0.00330033       0.01685140       0.04568449
O        9.15645490       6.74538239       9.15990009  T       0.00000000       0.00000000       0.00000000       0.01132804       0.01212324      -0.00508563
O        9.16718237       9.44401604       9.17530106  T       0.00000000       0.00000000       0.00000000      -0.00227624       0.00509143       0.00389685
O        9.16078073       6.76123572       6.10801818  F       0.00000000       0.00000000       0.00000000      -0.00935837       0.00434982       0.05540385
O        9.16078059       9.45627785       6.10801483  F       0.00000000       0.00000000       0.00000000       0.00150687      -0.01554853       0.08828576
O        9.16077813       6.75730765       3.02679635  F       0.00000000       0.00000000       0.00000000      -0.00012205      -0.47175137       0.31481562
O        9.16077813       9.46023072       3.02679635  F       0.00000000       0.00000000       0.00000000       0.00013296       0.47123365       0.31370392
O        9.16779930       1.30470210      12.15219609  T       0.00000000       0.00000000       0.00000000      -0.00299376      -0.00202379      -0.01630560
O        9.17185720       4.05225557      12.18840064  T       0.00000000       0.00000000       0.00000000       0.00049608       0.01573421       0.00601333
O        3.02403078       4.05974479      12.18832961  T       0.00000000       0.00000000       0.00000000       0.00463421      -0.00698882       0.00200906
O        9.15504493       1.33959437       9.15581017  T       0.00000000       0.00000000       0.00000000       0.01056508      -0.00613887       0.01075720
O        9.16077827       1.35539012       6.10801450  F       0.00000000       0.00000000       0.00000000      -0.00974815      -0.01692417       0.04227311
O        9.16078421       4.05045012       6.10800209  F       0.00000000       0.00000000       0.00000000      -0.00191723      -0.01426144       0.07619128
O        9.16077813       1.35146153       3.02679635  F       0.00000000       0.00000000       0.00000000      -0.00007494      -0.47146970       0.31510968
O        9.16077813       4.05438459       3.02679635  F       0.00000000       0.00000000       0.00000000      -0.00001537       0.47107491       0.31499262
O        6.09843542       6.61957781      12.14128603  T       0.00000000       0.00000000       0.00000000       0.00145455       0.01490584      -0.00498785
O        6.10242916       9.36222523      12.33752261  T       0.00000000       0.00000000       0.00000000      -0.00202875      -0.00734597       0.00789970
O        6.10655345       6.74190932       9.14965050  T       0.00000000       0.00000000       0.00000000       0.00092710       0.00275329       0.01923356
O        6.10948063       9.42757377       9.19868766  T       0.00000000       0.00000000       0.00000000       0.00642939      -0.00625886      -0.02021575
O        9.16162283       4.04073497       9.16470973  T       0.00000000       0.00000000       0.00000000       0.00958311       0.01012980       0.00165990
O        3.06550666       1.33875603       9.16643305  T       0.00000000       0.00000000       0.00000000      -0.01539310       0.01525483      -0.00611446
O        9.14072109       6.67488193      12.16345351  T       0.00000000       0.00000000       0.00000000      -0.00377485       0.00571092      -0.00323228
O       12.21466909       9.48634656      12.17973523  T       0.00000000       0.00000000       0.00000000       0.00358749       0.01385562      -0.00678564
O        0.00000000       6.75730765       3.02679635  F       0.00000000       0.00000000       0.00000000       0.00002405      -0.47157607       0.31400628
O        3.04832595       4.03945253       9.17365278  T       0.00000000       0.00000000       0.00000000       0.00028841       0.00145327      -0.00580052
O        0.00102026       1.29041978      12.17170142  T       0.00000000       0.00000000       0.00000000      -0.00142649       0.02080771      -0.00985459
O        0.00000951       9.45630243       6.10801529  F       0.00000000       0.00000000       0.00000000       0.00178724      -0.01671371       0.08738034
O       12.20335572       4.08158610      12.17965298  T       0.00000000       0.00000000       0.00000000       0.02011355      -0.00039320      -0.00018154
O        0.00000182       6.76124509       6.10800952  F       0.00000000       0.00000000       0.00000000      -0.00085670       0.01497900       0.07202522
O        0.00085532       9.45216825       9.17406655  T       0.00000000       0.00000000       0.00000000       0.00987117      -0.00421712      -0.00124236
O        0.00486240       1.35015553       9.16698357  T       0.00000000       0.00000000       0.00000000      -0.01194812      -0.02253730      -0.00631244
O       -0.00233210       6.75519882       9.16379584  T       0.00000000       0.00000000       0.00000000      -0.00079321      -0.00571461       0.01252199
O       12.21339252       4.04392148       9.17200912  T       0.00000000       0.00000000       0.00000000       0.00632961      -0.00646911      -0.00136377
O       12.20161859       6.69048353      12.15701360  T       0.00000000       0.00000000       0.00000000       0.01350039       0.00668521       0.01947655
O        0.00000448       1.35539672       6.10801283  F       0.00000000       0.00000000       0.00000000       0.00353678       0.01322288       0.07336417
O        0.00000331       4.05045002       6.10801189  F       0.00000000       0.00000000       0.00000000      -0.00127686      -0.02006189       0.08433618
O        3.05359271       4.05438459       3.02679635  F       0.00000000       0.00000000       0.00000000       0.00010378       0.47115791       0.31348414
O        0.00000000       9.46023072       3.02679635  F       0.00000000       0.00000000       0.00000000       0.00008997       0.47147387       0.31333897
O        3.05359105       4.05044320       6.10802763  F       0.00000000       0.00000000       0.00000000       0.00106129      -0.03228741       0.10176817
O        3.05359271       1.35146153       3.02679635  F       0.00000000       0.00000000       0.00000000       0.00028545      -0.47147097       0.31345321
O        3.05359652       1.35540103       6.10801944  F       0.00000000       0.00000000       0.00000000       0.01818267      -0.00222543       0.06665389
O        0.00000000       4.05438459       3.02679635  F       0.00000000       0.00000000       0.00000000       0.00005876       0.47152122       0.31397993
O        0.00000000       1.35146153       3.02679635  F       0.00000000       0.00000000       0.00000000       0.00013337      -0.47147112       0.31399882
Pd       7.63546337       5.33062886      12.02960273  T       0.00000000       0.00000000       0.00000000       0.00274718       0.02364385       0.00104411
Pd      10.67869976       5.37900161      12.02265340  T       0.00000000       0.00000000       0.00000000      -0.00954463       0.00986450       0.00164422
Pd       0.00000000       8.10876919       1.50000000  F       0.00000000       0.00000000       0.00000000      -0.00004326       0.00014172      -0.90387915
Pd       9.16795798       8.08375629      10.76050221  T       0.00000000       0.00000000       0.00000000      -0.01290868       0.01087145       0.01127922
Pd       1.52679635       0.00000000       3.02679635  F       0.00000000       0.00000000       0.00000000      -0.00002238      -0.00004585       0.04842205
Pd       9.16077813       2.70292306       1.50000000  F       0.00000000       0.00000000       0.00000000       0.00006237       0.00006233      -0.90397139
Pd      10.68757448       0.00000000       3.02679635  F       0.00000000       0.00000000       0.00000000       0.00014062      -0.00004432       0.04846087
Pd      10.68730474       5.39720573       9.13594393  T       0.00000000       0.00000000       0.00000000       0.00067539      -0.00117737       0.00347764
Pd       1.52236243      -0.01681947      12.02331105  T       0.00000000       0.00000000       0.00000000      -0.00600762      -0.02018729      -0.00167023
Pd       9.16077900       2.70292450       4.56559698  F       0.00000000       0.00000000       0.00000000       0.00011937       0.00280993       0.11150626
Pd      10.68756280      10.81168006       6.11657659  F       0.00000000       0.00000000       0.00000000       0.00689095      -0.00594558      -0.03693311
Pd       9.16077776       8.10875607       4.56559406  F       0.00000000       0.00000000       0.00000000       0.00033969       0.00168098       0.11662032
Pd       1.52678677       0.00000067       6.11658292  F       0.00000000       0.00000000       0.00000000      -0.00203788      -0.00699889      -0.03767917
Pd       9.15953284       8.10482255       7.64929217  T       0.00000000       0.00000000       0.00000000       0.00356450      -0.00536016       0.00307068
Pd       9.15785887       2.69706445       7.64644308  T       0.00000000       0.00000000       0.00000000       0.00233524      -0.00037471      -0.01288288
Pd      10.69049013      -0.00694162       9.13930448  T       0.00000000       0.00000000       0.00000000      -0.00563760       0.00322829       0.00746267
Pd       0.00000135       2.70292705       4.56560641  F       0.00000000       0.00000000       0.00000000       0.00022553       0.00011839       0.12152128
Pd       1.53096461      10.80292728       9.14553692  T       0.00000000       0.00000000       0.00000000      -0.00244204      -0.00315492       0.00106421
Pd       9.16400099       2.68949322      10.74997809  T       0.00000000       0.00000000       0.00000000      -0.00286666      -0.02186809      -0.00094834
Pd       6.11824282       8.00737143      10.74841078  T       0.00000000       0.00000000       0.00000000      -0.01147578       0.00803072       0.02392672
Pd      10.69571700      10.79576824      12.02756908  T       0.00000000       0.00000000       0.00000000      -0.03053688      -0.01408110      -0.00146450
Pd       0.00109716       2.70122424       7.65083792  T       0.00000000       0.00000000       0.00000000       0.00355270      -0.01171868       0.00818627
Pd      10.68757280       5.40584816       6.11657764  F       0.00000000       0.00000000       0.00000000       0.00499391      -0.00644416      -0.03604493
Pd       9.16077813       8.10876919       1.50000000  F       0.00000000       0.00000000       0.00000000      -0.00000487       0.00029217      -0.90403629
Pd      10.68757448       5.40584612       3.02679635  F       0.00000000       0.00000000       0.00000000       0.00015981      -0.00001956       0.04865610
Pd      12.21482195       2.68991277      10.77022244  T       0.00000000       0.00000000       0.00000000      -0.01756065       0.01374570      -0.02391141
Pd       4.58258173      -0.02351187       9.15700918  T       0.00000000       0.00000000       0.00000000       0.01622887      -0.00466333      -0.00419662
Pd       7.63397856       5.40585179       6.11657833  F       0.00000000       0.00000000       0.00000000       0.00017818      -0.01042608      -0.04514246
Pd       7.63252281       5.38580100       9.13963213  T       0.00000000       0.00000000       0.00000000      -0.00205193       0.00159863      -0.00202921
Pd       4.56151446       5.33449441      12.03563862  T       0.00000000       0.00000000       0.00000000       0.01523721      -0.00173016      -0.01381709
Pd       3.05003623       8.08792442      10.77533642  T       0.00000000       0.00000000       0.00000000       0.01199806      -0.01364712      -0.00875300
Pd       4.58038906       0.00000000       3.02679635  F       0.00000000       0.00000000       0.00000000      -0.00059767       0.00006068       0.05018740
Pd       4.57605866       5.38776261       9.14545774  T       0.00000000       0.00000000       0.00000000      -0.00319173      -0.00206781      -0.00616612
Pd       3.05585455       8.10556786       7.65443795  T       0.00000000       0.00000000       0.00000000      -0.00269094      -0.00826789      -0.00498364
Pd       3.05359494       2.70292824       4.56560681  F       0.00000000       0.00000000       0.00000000      -0.00036016       0.00276479       0.12399797
Pd       3.05359271       2.70292306       1.50000000  F       0.00000000       0.00000000       0.00000000      -0.00009786       0.00000208      -0.90349007
Pd       4.58039501       5.40584640       6.11658908  F       0.00000000       0.00000000       0.00000000      -0.00387802      -0.00963794      -0.04672777
Pd       4.58040505      10.81168838       6.11658203  F       0.00000000       0.00000000       0.00000000      -0.00486300      -0.01115398      -0.05266460
Pd       4.58038906       5.40584612       3.02679635  F       0.00000000       0.00000000       0.00000000       0.00001155      -0.00003859       0.04903961
Pd       3.05359271       8.10876919       1.50000000  F       0.00000000       0.00000000       0.00000000      -0.00003215       0.00033913      -0.90341854
Pd       3.05873294       2.69654940       7.65140860  T       0.00000000       0.00000000       0.00000000      -0.01233240      -0.00368772      -0.00008754
Pd       4.54834448      -0.01120191      12.08763366  T       0.00000000       0.00000000       0.00000000       0.01625912       0.00332033       0.00272760
Pd       3.05177921       2.68448068      10.76253998  T       0.00000000       0.00000000       0.00000000       0.00885130      -0.01847295      -0.00125916
Pd       3.05359569       8.10876742       4.56559865  F       0.00000000       0.00000000       0.00000000      -0.00067721       0.00196281       0.12923125
Pd       6.10718542       2.70292306       1.50000000  F       0.00000000       0.00000000       0.00000000       0.00007953      -0.00005489      -0.90338174
Pd       7.63398177       0.00000000       3.02679635  F       0.00000000       0.00000000       0.00000000       0.00028071      -0.00001363       0.04901518
Pd       1.51495048       5.38297792      12.02357796  T       0.00000000       0.00000000       0.00000000      -0.01082363      -0.01426813      -0.00770751
Pd       6.10654298       8.10723026       7.64923847  T       0.00000000       0.00000000       0.00000000       0.00220148       0.03402542      -0.00102595
Pd       0.00000079       8.10876600       4.56559869  F       0.00000000       0.00000000       0.00000000       0.00031110       0.00076647       0.12253353
Pd       6.10718651       8.10875952       4.56558968  F       0.00000000       0.00000000       0.00000000      -0.00027989      -0.00036265       0.11199269
Pd       1.52680247       5.40584247       6.11658534  F       0.00000000       0.00000000       0.00000000      -0.00015035      -0.00521942      -0.03493711
Pd       7.63398177       5.40584612       3.02679635  F       0.00000000       0.00000000       0.00000000      -0.00026256       0.00000795       0.04862956
Pd       6.10718542       8.10876919       1.50000000  F       0.00000000       0.00000000       0.00000000       0.00008697       0.00042540      -0.90368396
Pd      -0.00026163       8.10728217       7.65108820  T       0.00000000       0.00000000       0.00000000       0.00068107       0.00668271      -0.00164993
Pd       7.67102756      10.80602559      12.04159676  T       0.00000000       0.00000000       0.00000000       0.01590202       0.02148091      -0.00105751
Pd       6.09749067       2.66361227      10.77249323  T       0.00000000       0.00000000       0.00000000       0.02122502       0.00731115       0.00401407
Pd       1.52427846       5.39874502       9.13916464  T       0.00000000       0.00000000       0.00000000       0.00062780      -0.00268156       0.00936246
Pd       7.63501756      -0.02314952       9.14705853  T       0.00000000       0.00000000       0.00000000      -0.01207234       0.01127968       0.00825234
Pd       6.10447599       2.69412216       7.65341710  T       0.00000000       0.00000000       0.00000000       0.00625337      -0.00673320       0.00168357
Pd      12.20837644       8.09750115      10.76629880  T       0.00000000       0.00000000       0.00000000       0.00656694      -0.00457989      -0.00543684
Pd       7.63399583      10.81167532       6.11657540  F       0.00000000       0.00000000       0.00000000      -0.00108669      -0.00932573      -0.05413503
Pd       6.10718592       2.70292523       4.56558724  F       0.00000000       0.00000000       0.00000000       0.00006990       0.00484683       0.13001280
Pd       1.52679635       5.40584612       3.02679635  F       0.00000000       0.00000000       0.00000000       0.00018988       0.00001363       0.04883385
Pd       0.00000000       2.70292306       1.50000000  F       0.00000000       0.00000000       0.00000000      -0.00004758       0.00001546      -0.90385126
C        6.21462387       8.88952630      13.67958924  T       0.00000000       0.00000000       0.00000000       0.01043815       0.00697772      -0.00297590
O        5.50120995       9.33176555      14.54546285  T       0.00000000       0.00000000       0.00000000      -0.02954655      -0.01488469       0.01145773
O        8.14748821       0.39080698      14.95893995  T       0.00000000       0.00000000       0.00000000      -0.00054993       0.02536919      -0.01223556
C        7.75388980       1.53303812      15.14455305  T       0.00000000       0.00000000       0.00000000      -0.00799502       0.01187390       0.00132142
H        7.94252758       2.05648531      16.11937419  T       0.00000000       0.00000000       0.00000000       0.00471132       0.00159325      -0.03799606
H        7.19050020       2.10355059      14.36744440  T       0.00000000       0.00000000       0.00000000       0.00924561       0.01695193       0.00992203
H        7.02328898      -2.66645325      13.77575084  T       0.00000000       0.00000000       0.00000000      -0.00509813      -0.00086399      -0.00160397
