135
Lattice="12.21437083684855 0.0 7e-16 1.7e-15 10.811692246786171 7e-16 0.0 0.0 30.687574482242482" Properties=species:S:1:pos:R:3:move_mask:L:1:momenta:R:3:forces:R:3 idx=3514 E_MACE=-713.9058447868217 d_min=2.0589097294780943 d_reactive=2.9159020344825377 E=-713.9058447868217 converged=T n_steps=59 d_z=1.985782397882172 fingerprint="_JSON [1.11, 1.11, 1.12, 1.18, 1.22, 1.9, 2.05, 2.05, 2.1, 2.52, 2.92, 3.29, 3.48, 3.48, 3.6, 3.61, 3.68, 3.83, 4.5, 4.71, 4.91]" dE_rel_meV=2224.0106012528713 energy=-713.9058447868217 stress="1.9485815719623434e-05 -1.9104944154708197e-05 -5.611205133918687e-05 -1.9104944154708197e-05 -0.0010615940850905135 3.923756615366463e-05 -5.611205133918687e-05 3.923756615366463e-05 -0.0037951883735939627" pbc="T T T"
O        3.00497762       6.74446989      12.20017332  T       0.00000000       0.00000000       0.00000000       0.01446992      -0.01346717       0.00367367
O        6.08935906       1.31344518      12.16081904  T       0.00000000       0.00000000       0.00000000      -0.00262304      -0.00014206       0.01171915
O        6.10429198       4.08490810      12.18751584  T       0.00000000       0.00000000       0.00000000      -0.00292985      -0.00909276       0.01411203
O        6.09066443       1.36157058       9.16975884  T       0.00000000       0.00000000       0.00000000      -0.00861097      -0.00353174      -0.00287004
O        6.08885478       4.05831388       9.16529520  T       0.00000000       0.00000000       0.00000000      -0.00441563       0.00398317       0.00947361
O        6.10718343       1.35539432       6.10801899  F       0.00000000       0.00000000       0.00000000      -0.00933041       0.02075896       0.08281872
O        6.10718534       4.05045008       6.10801162  F       0.00000000       0.00000000       0.00000000      -0.01036502      -0.00379229       0.05899000
O        6.10718542       1.35146153       3.02679635  F       0.00000000       0.00000000       0.00000000      -0.00030138      -0.47105320       0.31474151
O        6.10718542       4.05438459       3.02679635  F       0.00000000       0.00000000       0.00000000      -0.00045675       0.47076652       0.31502668
O        9.14010364       9.51135304      12.16546889  T       0.00000000       0.00000000       0.00000000      -0.00179675      -0.00249109      -0.01109792
O        3.03644179       9.51625206      12.15931104  T       0.00000000       0.00000000       0.00000000       0.00825132       0.00124266      -0.00886994
O        3.04107206       6.76293617       9.17379525  T       0.00000000       0.00000000       0.00000000       0.00317565      -0.02280083      -0.01425769
O        3.04202883       9.45479777       9.16466766  T       0.00000000       0.00000000       0.00000000       0.00697508       0.01066174      -0.00058523
O        3.05359341       6.76124998       6.10801980  F       0.00000000       0.00000000       0.00000000      -0.00990797       0.00467772       0.06501035
O        3.05359360       9.45629444       6.10802097  F       0.00000000       0.00000000       0.00000000      -0.00746831      -0.02098104       0.07338617
O        3.05359271       6.75730765       3.02679635  F       0.00000000       0.00000000       0.00000000      -0.00022858      -0.47048018       0.31502246
O        3.05359271       9.46023072       3.02679635  F       0.00000000       0.00000000       0.00000000      -0.00025035       0.47100099       0.31514286
O        3.03350394       1.31515912      12.16485261  T       0.00000000       0.00000000       0.00000000       0.00443874      -0.00916775      -0.00157370
O        6.10718542       9.46023072       3.02679635  F       0.00000000       0.00000000       0.00000000      -0.00033659       0.47108852       0.31559793
O        6.10718542       6.75730765       3.02679635  F       0.00000000       0.00000000       0.00000000      -0.00047523      -0.47057561       0.31561146
O        6.10718028       9.45628983       6.10801454  F       0.00000000       0.00000000       0.00000000      -0.01101690      -0.00779730       0.06035244
O        6.10718760       6.76124043       6.10802244  F       0.00000000       0.00000000       0.00000000      -0.01135703       0.00048358       0.05725807
O        9.14431143       6.76284479       9.16717399  T       0.00000000       0.00000000       0.00000000       0.01321422      -0.00878895       0.00176427
O        9.14563115       9.46069563       9.16239318  T       0.00000000       0.00000000       0.00000000       0.00881943      -0.00218388       0.01083672
O        9.16078073       6.76123572       6.10801818  F       0.00000000       0.00000000       0.00000000      -0.00414840       0.00994297       0.07108600
O        9.16078059       9.45627785       6.10801483  F       0.00000000       0.00000000       0.00000000      -0.00367243      -0.01051098       0.06668234
O        9.16077813       6.75730765       3.02679635  F       0.00000000       0.00000000       0.00000000      -0.00016088      -0.47122232       0.31441118
O        9.16077813       9.46023072       3.02679635  F       0.00000000       0.00000000       0.00000000      -0.00023019       0.47133369       0.31473687
O        9.14411327       1.30748802      12.16787933  T       0.00000000       0.00000000       0.00000000      -0.01550076      -0.00606282       0.00148961
O        9.13647833       4.10559619      12.16732278  T       0.00000000       0.00000000       0.00000000       0.00096256       0.00379336      -0.00648924
O        3.00940560       4.08728170      12.16764159  T       0.00000000       0.00000000       0.00000000       0.01783660       0.01037782       0.00890782
O        9.14825642       1.35760122       9.16821985  T       0.00000000       0.00000000       0.00000000      -0.00189608      -0.00947704      -0.00233481
O        9.16077827       1.35539012       6.10801450  F       0.00000000       0.00000000       0.00000000      -0.00450992       0.02021865       0.08117097
O        9.16078421       4.05045012       6.10800209  F       0.00000000       0.00000000       0.00000000      -0.00731740      -0.01040308       0.07144090
O        9.16077813       1.35146153       3.02679635  F       0.00000000       0.00000000       0.00000000      -0.00022777      -0.47135465       0.31406426
O        9.16077813       4.05438459       3.02679635  F       0.00000000       0.00000000       0.00000000      -0.00019412       0.47132490       0.31403219
O        6.10847223       6.74729386      12.17763502  T       0.00000000       0.00000000       0.00000000       0.00383736      -0.01641878       0.03065718
O        6.08490471       9.51681622      12.15017822  T       0.00000000       0.00000000       0.00000000      -0.00220342       0.00727486       0.01385940
O        6.08928359       6.76134665       9.16530196  T       0.00000000       0.00000000       0.00000000       0.00066884      -0.01199851       0.01115729
O        6.09048813       9.45983103       9.16051937  T       0.00000000       0.00000000       0.00000000       0.00354890      -0.00263063       0.01875086
O        9.14424662       4.05321131       9.16832988  T       0.00000000       0.00000000       0.00000000       0.00405704       0.00729967      -0.00591565
O        3.03845430       1.35706251       9.16501583  T       0.00000000       0.00000000       0.00000000       0.01769251      -0.01603446       0.00212455
O        9.13776165       6.72139387      12.17175206  T       0.00000000       0.00000000       0.00000000       0.00747907      -0.00774829      -0.01965185
O       12.19901255       9.50910361      12.16814751  T       0.00000000       0.00000000       0.00000000       0.00242969       0.01335763      -0.00101911
O        0.00000000       6.75730765       3.02679635  F       0.00000000       0.00000000       0.00000000      -0.00026052      -0.47125998       0.31420682
O        3.04092336       4.05620569       9.16513355  T       0.00000000       0.00000000       0.00000000       0.00571316       0.01727423       0.00768867
O       -0.02231996       1.31045125      12.16533451  T       0.00000000       0.00000000       0.00000000       0.01878901      -0.01042865       0.00917205
O        0.00000951       9.45630243       6.10801529  F       0.00000000       0.00000000       0.00000000      -0.00571751      -0.01488232       0.07097002
O       12.18762886       4.10527190      12.16166535  T       0.00000000       0.00000000       0.00000000       0.01202409       0.00553193       0.00430301
O        0.00000182       6.76124509       6.10800952  F       0.00000000       0.00000000       0.00000000      -0.00758433       0.00641219       0.06793952
O       -0.01175902       9.45636230       9.16447013  T       0.00000000       0.00000000       0.00000000      -0.01094261       0.01257841       0.01021710
O       -0.01122252       1.35589183       9.16667954  T       0.00000000       0.00000000       0.00000000      -0.00354685      -0.01313415      -0.00205037
O       -0.01409408       6.76175785       9.16872903  T       0.00000000       0.00000000       0.00000000      -0.00555379      -0.00036557       0.00484797
O       12.20073779       4.05330181       9.16660011  T       0.00000000       0.00000000       0.00000000       0.00076734       0.01089947      -0.00385086
O       12.18854344       6.71908572      12.17583338  T       0.00000000       0.00000000       0.00000000       0.00079692       0.00376098      -0.01190793
O        0.00000448       1.35539672       6.10801283  F       0.00000000       0.00000000       0.00000000      -0.00580793       0.01567024       0.07688322
O        0.00000331       4.05045002       6.10801189  F       0.00000000       0.00000000       0.00000000      -0.00760563      -0.00794563       0.06965810
O        3.05359271       4.05438459       3.02679635  F       0.00000000       0.00000000       0.00000000      -0.00017522       0.47048692       0.31520637
O        0.00000000       9.46023072       3.02679635  F       0.00000000       0.00000000       0.00000000      -0.00025891       0.47134527       0.31447339
O        3.05359105       4.05044320       6.10802763  F       0.00000000       0.00000000       0.00000000      -0.01048682      -0.00003116       0.05633215
O        3.05359271       1.35146153       3.02679635  F       0.00000000       0.00000000       0.00000000      -0.00024138      -0.47079332       0.31525188
O        3.05359652       1.35540103       6.10801944  F       0.00000000       0.00000000       0.00000000      -0.01103638       0.01443309       0.07310796
O        0.00000000       4.05438459       3.02679635  F       0.00000000       0.00000000       0.00000000      -0.00027987       0.47119485       0.31418675
O        0.00000000       1.35146153       3.02679635  F       0.00000000       0.00000000       0.00000000      -0.00029386      -0.47115285       0.31438908
Pd       7.61759553       5.41401061      12.01910954  T       0.00000000       0.00000000       0.00000000       0.01972565       0.00048887      -0.00856778
Pd      10.66153753       5.41245854      12.01887798  T       0.00000000       0.00000000       0.00000000       0.00229529       0.00319311      -0.00848056
Pd       0.00000000       8.10876919       1.50000000  F       0.00000000       0.00000000       0.00000000      -0.00001044      -0.00005792      -0.90428442
Pd       9.14454321       8.11420114      10.76270101  T       0.00000000       0.00000000       0.00000000      -0.00684644       0.00553483       0.01559990
Pd       1.52679635       0.00000000       3.02679635  F       0.00000000       0.00000000       0.00000000       0.00035441       0.00005857       0.04864897
Pd       9.16077813       2.70292306       1.50000000  F       0.00000000       0.00000000       0.00000000       0.00000440       0.00000118      -0.90425124
Pd      10.68757448       0.00000000       3.02679635  F       0.00000000       0.00000000       0.00000000       0.00040536      -0.00000838       0.04861066
Pd      10.67189595       5.40763982       9.13899086  T       0.00000000       0.00000000       0.00000000       0.00637048       0.00060417       0.00087345
Pd       1.50637416       0.00985082      12.01576523  T       0.00000000       0.00000000       0.00000000      -0.02173397       0.01716501       0.01176066
Pd       9.16077900       2.70292450       4.56559698  F       0.00000000       0.00000000       0.00000000       0.00086083      -0.00117666       0.12116594
Pd      10.68756280      10.81168006       6.11657659  F       0.00000000       0.00000000       0.00000000       0.00241539       0.00249724      -0.03639499
Pd       9.16077776       8.10875607       4.56559406  F       0.00000000       0.00000000       0.00000000       0.00090616       0.00011412       0.11746226
Pd       1.52678677       0.00000067       6.11658292  F       0.00000000       0.00000000       0.00000000       0.00155702      -0.00043720      -0.03620868
Pd       9.15481500       8.10930042       7.64890088  T       0.00000000       0.00000000       0.00000000      -0.01065198       0.00259142       0.00280200
Pd       9.15418130       2.70449231       7.65055289  T       0.00000000       0.00000000       0.00000000      -0.00285516      -0.00310881       0.00122035
Pd      10.67501249       0.00168073       9.13518442  T       0.00000000       0.00000000       0.00000000      -0.00086018      -0.00229545       0.00778674
Pd       0.00000135       2.70292705       4.56560641  F       0.00000000       0.00000000       0.00000000       0.00124228      -0.00060283       0.11917722
Pd       1.51405122      10.81100235       9.13573025  T       0.00000000       0.00000000       0.00000000      -0.00476432       0.00375334       0.00830500
Pd       9.14463520       2.70521815      10.76670615  T       0.00000000       0.00000000       0.00000000       0.00107169       0.00482030      -0.01754782
Pd       6.08612149       8.11670821      10.75145629  T       0.00000000       0.00000000       0.00000000      -0.00467226       0.00367866      -0.01370246
Pd      10.66907096      10.81356022      12.01884953  T       0.00000000       0.00000000       0.00000000       0.00052024       0.00497213      -0.00904134
Pd      -0.00634790       2.70400816       7.64964476  T       0.00000000       0.00000000       0.00000000       0.00077152      -0.00272091       0.00133133
Pd      10.68757280       5.40584816       6.11657764  F       0.00000000       0.00000000       0.00000000       0.00211111       0.00005156      -0.03765716
Pd       9.16077813       8.10876919       1.50000000  F       0.00000000       0.00000000       0.00000000      -0.00001729      -0.00006144      -0.90434795
Pd      10.68757448       5.40584612       3.02679635  F       0.00000000       0.00000000       0.00000000       0.00036795       0.00000197       0.04854258
Pd      12.19573650       2.70621026      10.76221972  T       0.00000000       0.00000000       0.00000000      -0.00725714      -0.00464316      -0.01035542
Pd       4.56512603       0.00306891       9.13084004  T       0.00000000       0.00000000       0.00000000       0.00449950       0.00044168       0.01821097
Pd       7.63397856       5.40585179       6.11657833  F       0.00000000       0.00000000       0.00000000       0.00315289      -0.00040599      -0.03830136
Pd       7.61895930       5.40875422       9.13551163  T       0.00000000       0.00000000       0.00000000       0.00738661       0.00049332       0.01492045
Pd       4.55244285       5.41443941      12.12868680  T       0.00000000       0.00000000       0.00000000      -0.00853134       0.02118638       0.01706830
Pd       3.04123237       8.11267147      10.76286871  T       0.00000000       0.00000000       0.00000000      -0.01919008      -0.01062632       0.01255442
Pd       4.58038906       0.00000000       3.02679635  F       0.00000000       0.00000000       0.00000000       0.00048683       0.00003369       0.04791737
Pd       4.56467828       5.41007614       9.13190118  T       0.00000000       0.00000000       0.00000000       0.00655472       0.00450476       0.01968698
Pd       3.04822497       8.10754709       7.64895612  T       0.00000000       0.00000000       0.00000000       0.00144899       0.00323419       0.00011999
Pd       3.05359494       2.70292824       4.56560681  F       0.00000000       0.00000000       0.00000000       0.00157930      -0.00056821       0.11078098
Pd       3.05359271       2.70292306       1.50000000  F       0.00000000       0.00000000       0.00000000       0.00000182       0.00009657      -0.90444522
Pd       4.58039501       5.40584640       6.11658908  F       0.00000000       0.00000000       0.00000000       0.00433242       0.00115093      -0.08539659
Pd       4.58040505      10.81168838       6.11658203  F       0.00000000       0.00000000       0.00000000       0.00395766       0.00237132      -0.04001530
Pd       4.58038906       5.40584612       3.02679635  F       0.00000000       0.00000000       0.00000000       0.00054640      -0.00003260       0.04256349
Pd       3.05359271       8.10876919       1.50000000  F       0.00000000       0.00000000       0.00000000      -0.00000663      -0.00015747      -0.90450750
Pd       3.04624608       2.70462530       7.64766923  T       0.00000000       0.00000000       0.00000000       0.00842511      -0.00196805      -0.00228083
Pd       4.56189373       0.01401159      12.01045241  T       0.00000000       0.00000000       0.00000000       0.00491044      -0.00929484       0.00665949
Pd       3.04064648       2.70685529      10.75347962  T       0.00000000       0.00000000       0.00000000      -0.01866468      -0.00297296       0.00857166
Pd       3.05359569       8.10876742       4.56559865  F       0.00000000       0.00000000       0.00000000       0.00150939       0.00045763       0.11285844
Pd       6.10718542       2.70292306       1.50000000  F       0.00000000       0.00000000       0.00000000       0.00004532       0.00004104      -0.90448961
Pd       7.63398177       0.00000000       3.02679635  F       0.00000000       0.00000000       0.00000000       0.00056110       0.00007632       0.04850124
Pd       1.49466344       5.41125471      12.02705114  T       0.00000000       0.00000000       0.00000000       0.01855941      -0.01032455       0.00817996
Pd       6.09550720       8.10872281       7.64645160  T       0.00000000       0.00000000       0.00000000       0.01282582       0.00784362      -0.00360854
Pd       0.00000079       8.10876600       4.56559869  F       0.00000000       0.00000000       0.00000000       0.00135818       0.00050645       0.11782194
Pd       6.10718651       8.10875952       4.56558968  F       0.00000000       0.00000000       0.00000000       0.00047351      -0.00004454       0.10776829
Pd       1.52680247       5.40584247       6.11658534  F       0.00000000       0.00000000       0.00000000       0.00596148       0.00193719      -0.04023159
Pd       7.63398177       5.40584612       3.02679635  F       0.00000000       0.00000000       0.00000000       0.00057099      -0.00004650       0.04934397
Pd       6.10718542       8.10876919       1.50000000  F       0.00000000       0.00000000       0.00000000       0.00007451      -0.00012920      -0.90464211
Pd      -0.00665857       8.10802395       7.64914860  T       0.00000000       0.00000000       0.00000000       0.00123152       0.00194419       0.00897495
Pd       7.61443379      10.81722310      12.01117753  T       0.00000000       0.00000000       0.00000000       0.03095607       0.01853970       0.00025857
Pd       6.08244804       2.70958550      10.75840705  T       0.00000000       0.00000000       0.00000000       0.00204082      -0.00325964       0.01101231
Pd       1.51168921       5.40864194       9.14066533  T       0.00000000       0.00000000       0.00000000      -0.00965601       0.00282407       0.01746648
Pd       7.61857257       0.00470190       9.13584193  T       0.00000000       0.00000000       0.00000000       0.01196429      -0.00027915       0.00926436
Pd       6.09624184       2.70570585       7.64907473  T       0.00000000       0.00000000       0.00000000       0.00909376      -0.00555642      -0.00571210
Pd      12.19440463       8.11102447      10.76506314  T       0.00000000       0.00000000       0.00000000       0.00547576       0.00055881       0.01211289
Pd       7.63399583      10.81167532       6.11657540  F       0.00000000       0.00000000       0.00000000       0.00621426       0.00510232      -0.03271959
Pd       6.10718592       2.70292523       4.56558724  F       0.00000000       0.00000000       0.00000000       0.00068674      -0.00126812       0.11466318
Pd       1.52679635       5.40584612       3.02679635  F       0.00000000       0.00000000       0.00000000       0.00041451      -0.00009954       0.04978008
Pd       0.00000000       2.70292306       1.50000000  F       0.00000000       0.00000000       0.00000000       0.00000013       0.00002443      -0.90420495
C        4.63398032       5.42471164      14.18595572  T       0.00000000       0.00000000       0.00000000       0.02944980      -0.00344894      -0.03542675
O        3.79421067       4.92180862      14.84958378  T       0.00000000       0.00000000       0.00000000      -0.03678741      -0.00780434       0.00296973
O        4.55818452       8.07766171      15.39367904  T       0.00000000       0.00000000       0.00000000       0.02699781       0.00259561       0.03686828
C        3.56198814       8.73567322      15.12740372  T       0.00000000       0.00000000       0.00000000      -0.01715407       0.00174889      -0.01117573
H        3.41414813       9.76616864      15.54615033  T       0.00000000       0.00000000       0.00000000      -0.00255031      -0.00652362      -0.04556923
H        2.75720522       8.34788221      14.46221707  T       0.00000000       0.00000000       0.00000000      -0.01353382      -0.00241009      -0.01095539
H        5.56682743       5.97437517      14.44175260  T       0.00000000       0.00000000       0.00000000      -0.03320784      -0.00387970      -0.01713287
