135
Lattice="12.21437083684855 0.0 7e-16 1.7e-15 10.811692246786171 7e-16 0.0 0.0 30.687574482242482" Properties=species:S:1:pos:R:3:move_mask:L:1:momenta:R:3:forces:R:3 idx=4500 E_MACE=-712.5303289124386 d_min=2.233910799398447 d_reactive=2.180552337340613 E=-712.5303289124386 converged=F n_steps=300 d_z=2.096466442202912 fingerprint="_JSON [1.12, 1.12, 1.13, 1.18, 1.39, 1.78, 1.8, 1.81, 2.07, 2.09, 2.12, 2.18, 2.99, 3.16, 3.19, 3.63, 3.74, 3.74, 4.04, 4.06, 4.76]" dE_rel_meV=3599.5264756360257 energy=-712.5303289124386 stress="0.00035530733839052135 -0.00015914865769589017 0.00021450380706877387 -0.00015914865769589017 -0.0014215443828115883 0.0004378143431117663 0.00021450380706877387 0.0004378143431117663 -0.004297404934339653" pbc="T T T"
O        3.04219733       6.72468272      12.15685919  T       0.00000000       0.00000000       0.00000000       0.01108543      -0.01673128      -0.01438364
O        6.12903355       1.30951216      12.13637531  T       0.00000000       0.00000000       0.00000000       0.00761340       0.01270484       0.02255477
O        6.08796144       4.09606048      12.14854536  T       0.00000000       0.00000000       0.00000000       0.02757662      -0.00133062       0.08300704
O        6.12334662       1.35722250       9.15228366  T       0.00000000       0.00000000       0.00000000       0.01228095       0.03659242       0.01963098
O        6.10686608       4.05832096       9.15759968  T       0.00000000       0.00000000       0.00000000       0.02739788       0.02061092       0.03478701
O        6.10718343       1.35539432       6.10801899  F       0.00000000       0.00000000       0.00000000       0.01244704      -0.00029198       0.04213302
O        6.10718534       4.05045008       6.10801162  F       0.00000000       0.00000000       0.00000000      -0.00062713       0.02949013       0.02443667
O        6.10718542       1.35146153       3.02679635  F       0.00000000       0.00000000       0.00000000       0.00013421      -0.47079230       0.31698306
O        6.10718542       4.05438459       3.02679635  F       0.00000000       0.00000000       0.00000000       0.00017203       0.47047477       0.31637559
O        9.18216851       9.51431270      12.13106323  T       0.00000000       0.00000000       0.00000000      -0.01006696       0.00339319      -0.02970570
O        3.07507827       9.51133907      12.16513434  T       0.00000000       0.00000000       0.00000000       0.03049452       0.02367703      -0.02660604
O        3.06061448       6.76694792       9.16027722  T       0.00000000       0.00000000       0.00000000      -0.01539374       0.00840984       0.01515308
O        3.07081609       9.46639501       9.15269163  T       0.00000000       0.00000000       0.00000000      -0.00283008      -0.01644724       0.00549440
O        3.05359341       6.76124998       6.10801980  F       0.00000000       0.00000000       0.00000000      -0.00030176       0.00283484       0.05448319
O        3.05359360       9.45629444       6.10802097  F       0.00000000       0.00000000       0.00000000       0.00602246       0.01401908       0.02932820
O        3.05359271       6.75730765       3.02679635  F       0.00000000       0.00000000       0.00000000       0.00000547      -0.47055236       0.31583261
O        3.05359271       9.46023072       3.02679635  F       0.00000000       0.00000000       0.00000000      -0.00007064       0.47077021       0.31671287
O        3.07646114       1.31315999      12.16227596  T       0.00000000       0.00000000       0.00000000      -0.03513805       0.00311498       0.02744141
O        6.10718542       9.46023072       3.02679635  F       0.00000000       0.00000000       0.00000000       0.00010332       0.46956849       0.32135933
O        6.10718542       6.75730765       3.02679635  F       0.00000000       0.00000000       0.00000000       0.00014139      -0.46995928       0.31979917
O        6.10718028       9.45628983       6.10801454  F       0.00000000       0.00000000       0.00000000       0.00586995       0.02437147      -0.00823483
O        6.10718760       6.76124043       6.10802244  F       0.00000000       0.00000000       0.00000000       0.00026071      -0.08623033      -0.03125034
O        9.16880507       6.75214863       9.15459307  T       0.00000000       0.00000000       0.00000000       0.00138775       0.06164448      -0.01894751
O        9.17869003       9.46333316       9.13322377  T       0.00000000       0.00000000       0.00000000       0.00060744       0.03899182       0.08376368
O        9.16078073       6.76123572       6.10801818  F       0.00000000       0.00000000       0.00000000       0.00496465      -0.02927889       0.02265233
O        9.16078059       9.45627785       6.10801483  F       0.00000000       0.00000000       0.00000000       0.01609990       0.03124506       0.00520633
O        9.16077813       6.75730765       3.02679635  F       0.00000000       0.00000000       0.00000000       0.00025896      -0.46987176       0.31816145
O        9.16077813       9.46023072       3.02679635  F       0.00000000       0.00000000       0.00000000       0.00063753       0.47047011       0.31910224
O        9.19434882       1.30919339      12.12835218  T       0.00000000       0.00000000       0.00000000      -0.01836525      -0.01935168       0.07607499
O        9.15119200       4.09443543      12.16891614  T       0.00000000       0.00000000       0.00000000       0.04686715      -0.00748501      -0.03533422
O        3.05066924       4.10872761      12.17316805  T       0.00000000       0.00000000       0.00000000       0.00438264       0.00041921       0.00816152
O        9.18119321       1.35391237       9.15552846  T       0.00000000       0.00000000       0.00000000       0.00402395       0.04082256       0.00917719
O        9.16077827       1.35539012       6.10801450  F       0.00000000       0.00000000       0.00000000       0.01497839      -0.00338166       0.04745082
O        9.16078421       4.05045012       6.10800209  F       0.00000000       0.00000000       0.00000000      -0.00700071       0.01018332       0.04270480
O        9.16077813       1.35146153       3.02679635  F       0.00000000       0.00000000       0.00000000       0.00053162      -0.47051509       0.31689561
O        9.16077813       4.05438459       3.02679635  F       0.00000000       0.00000000       0.00000000       0.00006450       0.47053709       0.31599940
O        6.08835076       6.74799380      12.07896043  T       0.00000000       0.00000000       0.00000000       0.01391107      -0.06157527       0.00714461
O        6.13645700       9.52707720      12.09501776  T       0.00000000       0.00000000       0.00000000      -0.02410546       0.03008658       0.01485595
O        6.11397012       6.75483271       9.13809078  T       0.00000000       0.00000000       0.00000000      -0.02170792       0.00511654       0.04567783
O        6.12186860       9.47418685       9.12363615  T       0.00000000       0.00000000       0.00000000      -0.00047448      -0.04185340      -0.00586847
O        9.16068791       4.05918988       9.15839046  T       0.00000000       0.00000000       0.00000000       0.01569365      -0.02894321       0.03436494
O        3.07282851       1.36236545       9.16297526  T       0.00000000       0.00000000       0.00000000      -0.04734547       0.01462231       0.02243547
O        9.17672108       6.73356212      12.11376306  T       0.00000000       0.00000000       0.00000000       0.01665022      -0.01024552       0.05734249
O       12.24194270       9.50509832      12.17134903  T       0.00000000       0.00000000       0.00000000      -0.00588188      -0.00155084      -0.02665147
O        0.00000000       6.75730765       3.02679635  F       0.00000000       0.00000000       0.00000000       0.00033755      -0.47086708       0.31460363
O        3.06319018       4.05607544       9.16260338  T       0.00000000       0.00000000       0.00000000      -0.01497489       0.00561156       0.02229584
O        0.01791602       1.31083506      12.17129752  T       0.00000000       0.00000000       0.00000000       0.02927058      -0.04314948      -0.01901356
O        0.00000951       9.45630243       6.10801529  F       0.00000000       0.00000000       0.00000000       0.01987667      -0.02452079       0.07786895
O       12.20880084       4.09721127      12.16847787  T       0.00000000       0.00000000       0.00000000       0.02482295       0.02903093      -0.01845354
O        0.00000182       6.76124509       6.10800952  F       0.00000000       0.00000000       0.00000000       0.00296455       0.00384044       0.06742132
O        0.02282081       9.45884183       9.16382292  T       0.00000000       0.00000000       0.00000000      -0.00413464      -0.02602012      -0.01805924
O        0.01487212       1.35275594       9.16601029  T       0.00000000       0.00000000       0.00000000       0.01953177       0.03131248      -0.01195558
O        0.00549822       6.75771670       9.16491591  T       0.00000000       0.00000000       0.00000000       0.02313135       0.02000600      -0.00019912
O       12.22676761       4.05058842       9.16363531  T       0.00000000       0.00000000       0.00000000      -0.01086648      -0.01129852       0.01193924
O       12.20563841       6.70927248      12.15820852  T       0.00000000       0.00000000       0.00000000       0.00459703      -0.00624208      -0.00784107
O        0.00000448       1.35539672       6.10801283  F       0.00000000       0.00000000       0.00000000       0.00766366       0.00965533       0.06712035
O        0.00000331       4.05045002       6.10801189  F       0.00000000       0.00000000       0.00000000       0.00512849      -0.01392170       0.07001617
O        3.05359271       4.05438459       3.02679635  F       0.00000000       0.00000000       0.00000000       0.00015009       0.47124094       0.31494231
O        0.00000000       9.46023072       3.02679635  F       0.00000000       0.00000000       0.00000000       0.00047299       0.47068428       0.31502284
O        3.05359105       4.05044320       6.10802763  F       0.00000000       0.00000000       0.00000000       0.00498538       0.00356972       0.04751882
O        3.05359271       1.35146153       3.02679635  F       0.00000000       0.00000000       0.00000000       0.00005179      -0.47085931       0.31530048
O        3.05359652       1.35540103       6.10801944  F       0.00000000       0.00000000       0.00000000       0.01009515       0.01293597       0.06212889
O        0.00000000       4.05438459       3.02679635  F       0.00000000       0.00000000       0.00000000       0.00033963       0.47094856       0.31489326
O        0.00000000       1.35146153       3.02679635  F       0.00000000       0.00000000       0.00000000       0.00039664      -0.47116042       0.31485013
Pd       7.62446747       5.42259544      12.06597910  T       0.00000000       0.00000000       0.00000000      -0.16866894       0.06269947       0.06035694
Pd      10.68333628       5.39983444      12.00765523  T       0.00000000       0.00000000       0.00000000      -0.02526083       0.01874756       0.00872189
Pd       0.00000000       8.10876919       1.50000000  F       0.00000000       0.00000000       0.00000000      -0.00011911       0.00002043      -0.90490433
Pd       9.18279044       8.12471611      10.72000156  T       0.00000000       0.00000000       0.00000000      -0.02750147      -0.05096084       0.02965082
Pd       1.52679635       0.00000000       3.02679635  F       0.00000000       0.00000000       0.00000000      -0.00075894       0.00017019       0.04893213
Pd       9.16077813       2.70292306       1.50000000  F       0.00000000       0.00000000       0.00000000      -0.00003168       0.00025690      -0.90535307
Pd      10.68757448       0.00000000       3.02679635  F       0.00000000       0.00000000       0.00000000      -0.00011568       0.00017592       0.04803095
Pd      10.69847067       5.39983548       9.13306979  T       0.00000000       0.00000000       0.00000000      -0.03340547       0.05504539       0.00167863
Pd       1.54929114       0.00600197      12.02254203  T       0.00000000       0.00000000       0.00000000      -0.01368588       0.00771937      -0.02332877
Pd       9.16077900       2.70292450       4.56559698  F       0.00000000       0.00000000       0.00000000      -0.00153380       0.00135258       0.10002897
Pd      10.68756280      10.81168006       6.11657659  F       0.00000000       0.00000000       0.00000000       0.00732028       0.00480693      -0.03601738
Pd       9.16077776       8.10875607       4.56559406  F       0.00000000       0.00000000       0.00000000      -0.00123444      -0.00362358       0.08387816
Pd       1.52678677       0.00000067       6.11658292  F       0.00000000       0.00000000       0.00000000      -0.00760857       0.00394084      -0.03645086
Pd       9.16846922       8.11015750       7.63693712  T       0.00000000       0.00000000       0.00000000      -0.00779231      -0.11123785       0.00333912
Pd       9.16407935       2.70346379       7.64399251  T       0.00000000       0.00000000       0.00000000       0.00698470       0.02187720       0.00062205
Pd      10.70777274      -0.00235945       9.12427688  T       0.00000000       0.00000000       0.00000000       0.01660523       0.04972847       0.00955257
Pd       0.00000135       2.70292705       4.56560641  F       0.00000000       0.00000000       0.00000000      -0.00070623       0.00140687       0.11650238
Pd       1.54622947      10.81766201       9.13055267  T       0.00000000       0.00000000       0.00000000      -0.02057124      -0.00350497       0.02473803
Pd       9.17130525       2.71325068      10.74249201  T       0.00000000       0.00000000       0.00000000       0.00450551      -0.00946539       0.05499391
Pd       6.11813835       8.12227073      10.69729556  T       0.00000000       0.00000000       0.00000000      -0.01283137       0.06312931      -0.00877781
Pd      10.71833378      10.80940372      12.00368737  T       0.00000000       0.00000000       0.00000000      -0.02890475       0.04199043      -0.00228342
Pd       0.00658892       2.70234452       7.64929940  T       0.00000000       0.00000000       0.00000000       0.00298566      -0.00273609      -0.00595170
Pd      10.68757280       5.40584816       6.11657764  F       0.00000000       0.00000000       0.00000000       0.00200404      -0.00371197      -0.04015764
Pd       9.16077813       8.10876919       1.50000000  F       0.00000000       0.00000000       0.00000000      -0.00017175      -0.00044474      -0.90556413
Pd      10.68757448       5.40584612       3.02679635  F       0.00000000       0.00000000       0.00000000       0.00012741      -0.00023305       0.04849098
Pd      12.22261196       2.70191976      10.76219562  T       0.00000000       0.00000000       0.00000000       0.02094850       0.02237907       0.04082210
Pd       4.59510299       0.01040507       9.11075832  T       0.00000000       0.00000000       0.00000000       0.00848499      -0.01909671       0.05084332
Pd       7.63397856       5.40585179       6.11657833  F       0.00000000       0.00000000       0.00000000       0.00468250      -0.00802547      -0.05244658
Pd       7.63665095       5.40585623       9.14232357  T       0.00000000       0.00000000       0.00000000       0.03986165      -0.00794885      -0.00603306
Pd       4.57074767       5.41747915      12.03405379  T       0.00000000       0.00000000       0.00000000       0.03559272       0.10394451      -0.08674825
Pd       3.06008869       8.11889592      10.75190499  T       0.00000000       0.00000000       0.00000000      -0.00529972      -0.02279778       0.06249697
Pd       4.58038906       0.00000000       3.02679635  F       0.00000000       0.00000000       0.00000000      -0.00096236       0.00027114       0.04755657
Pd       4.58275239       5.41138219       9.12932563  T       0.00000000       0.00000000       0.00000000      -0.01230818      -0.02890058       0.02739056
Pd       3.05857286       8.11236384       7.64423749  T       0.00000000       0.00000000       0.00000000      -0.00375020      -0.01960247       0.00993963
Pd       3.05359494       2.70292824       4.56560681  F       0.00000000       0.00000000       0.00000000      -0.00087006      -0.00115438       0.11240359
Pd       3.05359271       2.70292306       1.50000000  F       0.00000000       0.00000000       0.00000000       0.00004982       0.00003467      -0.90524292
Pd       4.58039501       5.40584640       6.11658908  F       0.00000000       0.00000000       0.00000000      -0.00995068      -0.00470580      -0.04099923
Pd       4.58040505      10.81168838       6.11658203  F       0.00000000       0.00000000       0.00000000      -0.01121785       0.00960236      -0.03891355
Pd       4.58038906       5.40584612       3.02679635  F       0.00000000       0.00000000       0.00000000      -0.00069383      -0.00026129       0.04911138
Pd       3.05359271       8.10876919       1.50000000  F       0.00000000       0.00000000       0.00000000       0.00017028      -0.00021346      -0.90540368
Pd       3.06193236       2.70562853       7.64745216  T       0.00000000       0.00000000       0.00000000      -0.01212238       0.00906450       0.00741606
Pd       4.59782283       0.01282136      11.99428010  T       0.00000000       0.00000000       0.00000000       0.03748616      -0.03404276      -0.00226498
Pd       3.06777985       2.71463531      10.76379858  T       0.00000000       0.00000000       0.00000000      -0.00687431      -0.02299301      -0.00309934
Pd       3.05359569       8.10876742       4.56559865  F       0.00000000       0.00000000       0.00000000      -0.00125982      -0.00262228       0.10537062
Pd       6.10718542       2.70292306       1.50000000  F       0.00000000       0.00000000       0.00000000       0.00000830       0.00034811      -0.90559002
Pd       7.63398177       0.00000000       3.02679635  F       0.00000000       0.00000000       0.00000000      -0.00020729       0.00021361       0.04683989
Pd       1.52002387       5.41075749      12.01185617  T       0.00000000       0.00000000       0.00000000       0.00010024      -0.05181867       0.01492266
Pd       6.11230024       8.10399592       7.63036204  T       0.00000000       0.00000000       0.00000000       0.01068761       0.10686250      -0.00138919
Pd       0.00000079       8.10876600       4.56559869  F       0.00000000       0.00000000       0.00000000      -0.00082660       0.00085894       0.11992748
Pd       6.10718651       8.10875952       4.56558968  F       0.00000000       0.00000000       0.00000000      -0.00047684       0.00150885       0.06736849
Pd       1.52680247       5.40584247       6.11658534  F       0.00000000       0.00000000       0.00000000      -0.00557555       0.00011164      -0.03852375
Pd       7.63398177       5.40584612       3.02679635  F       0.00000000       0.00000000       0.00000000       0.00005940      -0.00019547       0.04302548
Pd       6.10718542       8.10876919       1.50000000  F       0.00000000       0.00000000       0.00000000       0.00006410      -0.00029834      -0.90602369
Pd       0.00951232       8.10640220       7.65006161  T       0.00000000       0.00000000       0.00000000      -0.01338049       0.03385758      -0.01437893
Pd       7.66466786      10.82885658      11.96934127  T       0.00000000       0.00000000       0.00000000      -0.02625331      -0.04122730       0.04958383
Pd       6.11361316       2.71019236      10.74354213  T       0.00000000       0.00000000       0.00000000      -0.01430230       0.00549610      -0.02347100
Pd       1.53556401       5.40907044       9.13046189  T       0.00000000       0.00000000       0.00000000      -0.01077244      -0.00754784       0.03333639
Pd       7.65346667       0.00538634       9.10779355  T       0.00000000       0.00000000       0.00000000      -0.02360826       0.03703581       0.01798716
Pd       6.11252528       2.70624075       7.64247848  T       0.00000000       0.00000000       0.00000000       0.00052884       0.00056660       0.00793955
Pd      12.22859338       8.10997064      10.76200036  T       0.00000000       0.00000000       0.00000000      -0.00563435       0.01703516       0.01198663
Pd       7.63399583      10.81167532       6.11657540  F       0.00000000       0.00000000       0.00000000      -0.00217537       0.01013505      -0.04081008
Pd       6.10718592       2.70292523       4.56558724  F       0.00000000       0.00000000       0.00000000      -0.00012576       0.00113534       0.09690342
Pd       1.52679635       5.40584612       3.02679635  F       0.00000000       0.00000000       0.00000000      -0.00072170      -0.00019364       0.04808260
Pd       0.00000000       2.70292306       1.50000000  F       0.00000000       0.00000000       0.00000000      -0.00006056       0.00001738      -0.90499351
C        7.52797638       5.77607793      14.26963449  T       0.00000000       0.00000000       0.00000000       1.13845844       0.17136750       0.77628101
O        8.45955233       5.78329400      14.98866715  T       0.00000000       0.00000000       0.00000000      -1.40030948       0.03581436      -0.77596539
O        5.66579012       6.81919487      14.71570386  T       0.00000000       0.00000000       0.00000000       0.23037016      -0.32822376      -0.00312247
C        5.59905242       8.18804870      14.94089522  T       0.00000000       0.00000000       0.00000000      -0.00197954       0.37370607      -0.01312359
H        5.57215776       8.43458275      16.03169008  T       0.00000000       0.00000000       0.00000000      -0.05058792      -0.16882596      -0.01220445
H        6.45613100       8.77341012      14.52160815  T       0.00000000       0.00000000       0.00000000      -0.09322284      -0.17384247      -0.06885785
H        4.66067954       8.61323881      14.47708346  T       0.00000000       0.00000000       0.00000000       0.28115040      -0.22255824       0.07523969
