135
Lattice="12.21437083684855 0.0 7e-16 1.7e-15 10.811692246786171 7e-16 0.0 0.0 30.687574482242482" Properties=species:S:1:pos:R:3:move_mask:L:1:momenta:R:3:forces:R:3 idx=4768 E_MACE=-714.8186324545941 d_min=1.4246277821591624 d_reactive=3.7197207787369684 E=-714.8186324545941 converged=T n_steps=124 d_z=1.3630646931678765 fingerprint="_JSON [1.12, 1.12, 1.21, 1.22, 1.9, 2.05, 2.05, 3.24, 3.34, 3.37, 3.95, 7.15, 7.66, 7.92, 8.37, 8.44, 8.51, 8.97, 9.07, 11.08, 11.58]" dE_rel_meV=1311.222933480508 energy=-714.8186324545941 stress="-0.00018476441714652785 -1.1032285439247304e-05 -5.426598107206073e-05 -1.1032285439247304e-05 -0.0013229886290719878 0.00013655493205372445 -5.426598107206073e-05 0.00013655493205372445 -0.0037156711390697976" pbc="T T T"
O        3.02484259       6.72741159      12.16209533  T       0.00000000       0.00000000       0.00000000       0.00970406      -0.02629464       0.02830567
O        6.08866133       1.31435093      12.18539127  T       0.00000000       0.00000000       0.00000000      -0.01434796      -0.00022748      -0.00118821
O        6.09137423       4.13140500      12.16975463  T       0.00000000       0.00000000       0.00000000      -0.00690665      -0.00536218       0.00478773
O        6.09917794       1.36511798       9.18208944  T       0.00000000       0.00000000       0.00000000      -0.00805522       0.01887037       0.00697957
O        6.09616229       4.05614432       9.17026503  T       0.00000000       0.00000000       0.00000000       0.00460803       0.00439748       0.00500927
O        6.10718343       1.35539432       6.10801899  F       0.00000000       0.00000000       0.00000000       0.00132286       0.02192800       0.09569019
O        6.10718534       4.05045008       6.10801162  F       0.00000000       0.00000000       0.00000000      -0.00039203      -0.01913351       0.07806307
O        6.10718542       1.35146153       3.02679635  F       0.00000000       0.00000000       0.00000000      -0.00006743      -0.47162780       0.31237619
O        6.10718542       4.05438459       3.02679635  F       0.00000000       0.00000000       0.00000000      -0.00003220       0.47200252       0.31338861
O        9.15184625       9.52888947      12.17507860  T       0.00000000       0.00000000       0.00000000      -0.01801866       0.01438862       0.01020651
O        3.03588877       9.52151108      12.15592031  T       0.00000000       0.00000000       0.00000000      -0.00542274      -0.02132701       0.01516040
O        3.04030795       6.76404675       9.16648749  T       0.00000000       0.00000000       0.00000000       0.00440953       0.01370821       0.00288211
O        3.04268897       9.46838571       9.16179367  T       0.00000000       0.00000000       0.00000000      -0.00891011      -0.00591128      -0.00658501
O        3.05359341       6.76124998       6.10801980  F       0.00000000       0.00000000       0.00000000      -0.00818026       0.01762434       0.08121639
O        3.05359360       9.45629444       6.10802097  F       0.00000000       0.00000000       0.00000000      -0.00655121      -0.00006357       0.06252057
O        3.05359271       6.75730765       3.02679635  F       0.00000000       0.00000000       0.00000000      -0.00017901      -0.47093819       0.31465056
O        3.05359271       9.46023072       3.02679635  F       0.00000000       0.00000000       0.00000000      -0.00017268       0.47112627       0.31469175
O        3.04033255       1.32562750      12.19030039  T       0.00000000       0.00000000       0.00000000      -0.02074135       0.01427231      -0.02224514
O        6.10718542       9.46023072       3.02679635  F       0.00000000       0.00000000       0.00000000       0.00001425       0.47135301       0.31496213
O        6.10718542       6.75730765       3.02679635  F       0.00000000       0.00000000       0.00000000      -0.00011250      -0.47103937       0.31503427
O        6.10718028       9.45628983       6.10801454  F       0.00000000       0.00000000       0.00000000       0.00364378       0.01777768       0.04616812
O        6.10718760       6.76124043       6.10802244  F       0.00000000       0.00000000       0.00000000      -0.00450588       0.00928319       0.07128903
O        9.14872306       6.77034817       9.17501517  T       0.00000000       0.00000000       0.00000000      -0.01108075       0.01465598       0.00171939
O        9.14892612       9.47234954       9.16486321  T       0.00000000       0.00000000       0.00000000       0.01128889      -0.00585038       0.01348412
O        9.16078073       6.76123572       6.10801818  F       0.00000000       0.00000000       0.00000000      -0.00849849       0.02831102       0.10000433
O        9.16078059       9.45627785       6.10801483  F       0.00000000       0.00000000       0.00000000      -0.00874163      -0.00406269       0.06485848
O        9.16077813       6.75730765       3.02679635  F       0.00000000       0.00000000       0.00000000      -0.00029500      -0.47114395       0.31377803
O        9.16077813       9.46023072       3.02679635  F       0.00000000       0.00000000       0.00000000      -0.00039684       0.47101884       0.31329058
O        9.13081968       1.43460369      12.35373339  T       0.00000000       0.00000000       0.00000000       0.01693776      -0.00169685       0.00545248
O        9.13387710       4.18308131      12.15597004  T       0.00000000       0.00000000       0.00000000      -0.00009712      -0.01756393       0.00822871
O        3.02858815       4.11293927      12.18059257  T       0.00000000       0.00000000       0.00000000      -0.01400878      -0.01680160      -0.00969443
O        9.15064644       1.37701614       9.20026517  T       0.00000000       0.00000000       0.00000000       0.00126866       0.01281074       0.00682378
O        9.16077827       1.35539012       6.10801450  F       0.00000000       0.00000000       0.00000000      -0.00803062       0.00069423       0.08503959
O        9.16078421       4.05045012       6.10800209  F       0.00000000       0.00000000       0.00000000      -0.00756445      -0.04523918       0.07945376
O        9.16077813       1.35146153       3.02679635  F       0.00000000       0.00000000       0.00000000      -0.00044293      -0.47127286       0.31325862
O        9.16077813       4.05438459       3.02679635  F       0.00000000       0.00000000       0.00000000      -0.00031442       0.47187212       0.31339173
O        6.06169340       6.74903933      12.17120396  T       0.00000000       0.00000000       0.00000000      -0.01948417      -0.03542091       0.01162776
O        6.08515789       9.50807487      12.15013575  T       0.00000000       0.00000000       0.00000000      -0.01376579      -0.01064245       0.00970354
O        6.09230972       6.76509156       9.16216621  T       0.00000000       0.00000000       0.00000000      -0.00411992       0.00079269       0.01063727
O        6.09851593       9.47082336       9.15671168  T       0.00000000       0.00000000       0.00000000       0.01247303       0.00820509       0.00762220
O        9.15023194       4.05558054       9.16306433  T       0.00000000       0.00000000       0.00000000      -0.00078429       0.01336761       0.00366956
O        3.04121372       1.36516883       9.17601654  T       0.00000000       0.00000000       0.00000000       0.01620883       0.00259888       0.00910828
O        9.13377023       6.77060565      12.19569703  T       0.00000000       0.00000000       0.00000000       0.01264413      -0.01740983      -0.01652795
O       12.20853709       9.50748655      12.14674965  T       0.00000000       0.00000000       0.00000000       0.00296799      -0.02013860       0.01503544
O        0.00000000       6.75730765       3.02679635  F       0.00000000       0.00000000       0.00000000      -0.00030386      -0.47088295       0.31545728
O        3.04334325       4.05415925       9.17058419  T       0.00000000       0.00000000       0.00000000      -0.01160313      -0.00595610      -0.00962779
O       -0.01315955       1.32121973      12.17234947  T       0.00000000       0.00000000       0.00000000      -0.00384504      -0.03932242       0.00007712
O        0.00000951       9.45630243       6.10801529  F       0.00000000       0.00000000       0.00000000      -0.01065462       0.01350414       0.04700850
O       12.17479198       4.12374283      12.17376112  T       0.00000000       0.00000000       0.00000000       0.01021069       0.01564776       0.01044976
O        0.00000182       6.76124509       6.10800952  F       0.00000000       0.00000000       0.00000000      -0.00602054      -0.00024715       0.06245321
O       -0.01270811       9.46930374       9.15416466  T       0.00000000       0.00000000       0.00000000      -0.01295994       0.01890268      -0.00620352
O       -0.01211794       1.36663261       9.17453305  T       0.00000000       0.00000000       0.00000000       0.00137160       0.00235325      -0.00508696
O       -0.00915455       6.76149801       9.16134433  T       0.00000000       0.00000000       0.00000000       0.00124104       0.03409888       0.00561891
O       12.19937927       4.05857470       9.15994717  T       0.00000000       0.00000000       0.00000000       0.00575808       0.00223677       0.03748434
O       12.20917803       6.74976494      12.17258324  T       0.00000000       0.00000000       0.00000000      -0.00598051      -0.02714353       0.00109818
O        0.00000448       1.35539672       6.10801283  F       0.00000000       0.00000000       0.00000000      -0.00976273       0.01062351       0.07763562
O        0.00000331       4.05045002       6.10801189  F       0.00000000       0.00000000       0.00000000      -0.01474367      -0.00505617       0.05439391
O        3.05359271       4.05438459       3.02679635  F       0.00000000       0.00000000       0.00000000      -0.00013815       0.47180688       0.31376951
O        0.00000000       9.46023072       3.02679635  F       0.00000000       0.00000000       0.00000000      -0.00028013       0.47113963       0.31539521
O        3.05359105       4.05044320       6.10802763  F       0.00000000       0.00000000       0.00000000      -0.00168627      -0.01507408       0.07274780
O        3.05359271       1.35146153       3.02679635  F       0.00000000       0.00000000       0.00000000      -0.00014393      -0.47158263       0.31331589
O        3.05359652       1.35540103       6.10801944  F       0.00000000       0.00000000       0.00000000      -0.00396833       0.02594432       0.09209464
O        0.00000000       4.05438459       3.02679635  F       0.00000000       0.00000000       0.00000000      -0.00037402       0.47181002       0.31499895
O        0.00000000       1.35146153       3.02679635  F       0.00000000       0.00000000       0.00000000      -0.00016056      -0.47141651       0.31402632
Pd       7.59647919       5.46865854      12.03318191  T       0.00000000       0.00000000       0.00000000       0.02649397       0.00075898      -0.02652158
Pd      10.66937123       5.47223386      12.03572861  T       0.00000000       0.00000000       0.00000000       0.01770316      -0.00953406      -0.00645743
Pd       0.00000000       8.10876919       1.50000000  F       0.00000000       0.00000000       0.00000000       0.00004365      -0.00003907      -0.90405342
Pd       9.14625939       8.13746987      10.76778626  T       0.00000000       0.00000000       0.00000000       0.00552369       0.00016565      -0.01051997
Pd       1.52679635       0.00000000       3.02679635  F       0.00000000       0.00000000       0.00000000       0.00046573       0.00008233       0.04841620
Pd       9.16077813       2.70292306       1.50000000  F       0.00000000       0.00000000       0.00000000       0.00009128      -0.00021939      -0.90367341
Pd      10.68757448       0.00000000       3.02679635  F       0.00000000       0.00000000       0.00000000       0.00057434       0.00000127       0.04841206
Pd      10.67587865       5.41586198       9.14031630  T       0.00000000       0.00000000       0.00000000      -0.01137052      -0.02015607      -0.00656836
Pd       1.51752864       0.01487520      12.01996537  T       0.00000000       0.00000000       0.00000000      -0.01636263       0.01402328      -0.00276738
Pd       9.16077900       2.70292450       4.56559698  F       0.00000000       0.00000000       0.00000000       0.00045063       0.00399045       0.11995878
Pd      10.68756280      10.81168006       6.11657659  F       0.00000000       0.00000000       0.00000000       0.00075621       0.00624362      -0.04994318
Pd       9.16077776       8.10875607       4.56559406  F       0.00000000       0.00000000       0.00000000       0.00098730      -0.00314228       0.12578864
Pd       1.52678677       0.00000067       6.11658292  F       0.00000000       0.00000000       0.00000000       0.00825304       0.00856202      -0.03871198
Pd       9.15353629       8.11365804       7.65158327  T       0.00000000       0.00000000       0.00000000       0.00444630      -0.00517364       0.00953320
Pd       9.15459184       2.69866860       7.65284307  T       0.00000000       0.00000000       0.00000000       0.00019741       0.01491769       0.00788953
Pd      10.67521797       0.01683720       9.14265327  T       0.00000000       0.00000000       0.00000000      -0.00109094      -0.00960399      -0.00126727
Pd       0.00000135       2.70292705       4.56560641  F       0.00000000       0.00000000       0.00000000       0.00123782      -0.00096908       0.11249004
Pd       1.51485927      10.82372410       9.14015036  T       0.00000000       0.00000000       0.00000000       0.00761993      -0.00876255      -0.00468654
Pd       9.15633672       2.79105566      10.76659070  T       0.00000000       0.00000000       0.00000000      -0.00189691       0.01740100      -0.01867705
Pd       6.08190308       8.12200819      10.74593350  T       0.00000000       0.00000000       0.00000000       0.03085018      -0.00660123      -0.00587628
Pd      10.70289855      10.79857539      12.04152630  T       0.00000000       0.00000000       0.00000000      -0.00852821       0.00859890       0.00711399
Pd      -0.00967182       2.70555390       7.64831090  T       0.00000000       0.00000000       0.00000000       0.01386139      -0.00391052      -0.00080471
Pd      10.68757280       5.40584816       6.11657764  F       0.00000000       0.00000000       0.00000000      -0.00086699       0.00108730      -0.04455411
Pd       9.16077813       8.10876919       1.50000000  F       0.00000000       0.00000000       0.00000000       0.00004724       0.00010398      -0.90344805
Pd      10.68757448       5.40584612       3.02679635  F       0.00000000       0.00000000       0.00000000      -0.00000698      -0.00023207       0.04881977
Pd      12.19169989       2.71902015      10.76449865  T       0.00000000       0.00000000       0.00000000       0.02183034       0.01195196      -0.03212844
Pd       4.56966167       0.01268876       9.14147222  T       0.00000000       0.00000000       0.00000000       0.01045852      -0.00787052      -0.00045090
Pd       7.63397856       5.40585179       6.11657833  F       0.00000000       0.00000000       0.00000000       0.00400822       0.00018614      -0.04491999
Pd       7.62025490       5.41460665       9.14559020  T       0.00000000       0.00000000       0.00000000       0.01074108      -0.00471203      -0.00816861
Pd       4.55148275       5.42419540      12.02172457  T       0.00000000       0.00000000       0.00000000       0.01314480       0.02267916       0.00287913
Pd       3.03406869       8.12127815      10.75584878  T       0.00000000       0.00000000       0.00000000       0.00615369      -0.01765585      -0.01019211
Pd       4.58038906       0.00000000       3.02679635  F       0.00000000       0.00000000       0.00000000       0.00031725       0.00024936       0.04822932
Pd       4.56758726       5.40919813       9.13946877  T       0.00000000       0.00000000       0.00000000       0.00544457      -0.00104243      -0.00272013
Pd       3.04634804       8.11200506       7.64885685  T       0.00000000       0.00000000       0.00000000       0.00603240      -0.00355257      -0.00028467
Pd       3.05359494       2.70292824       4.56560681  F       0.00000000       0.00000000       0.00000000       0.00095720      -0.00130882       0.12278249
Pd       3.05359271       2.70292306       1.50000000  F       0.00000000       0.00000000       0.00000000      -0.00003795      -0.00010702      -0.90396397
Pd       4.58039501       5.40584640       6.11658908  F       0.00000000       0.00000000       0.00000000       0.00073641       0.00060203      -0.03591642
Pd       4.58040505      10.81168838       6.11658203  F       0.00000000       0.00000000       0.00000000      -0.00109252       0.01073186      -0.03763713
Pd       4.58038906       5.40584612       3.02679635  F       0.00000000       0.00000000       0.00000000       0.00041569      -0.00022129       0.04877868
Pd       3.05359271       8.10876919       1.50000000  F       0.00000000       0.00000000       0.00000000       0.00001936      -0.00007187      -0.90404178
Pd       3.04916479       2.70549871       7.65215254  T       0.00000000       0.00000000       0.00000000      -0.00878102      -0.00184583       0.00417403
Pd       4.55899101       0.01384132      12.01768832  T       0.00000000       0.00000000       0.00000000       0.03601440       0.00258022       0.00486285
Pd       3.04085099       2.71573690      10.77548135  T       0.00000000       0.00000000       0.00000000      -0.00161611      -0.02048009      -0.00183092
Pd       3.05359569       8.10876742       4.56559865  F       0.00000000       0.00000000       0.00000000       0.00094075      -0.00145356       0.11720671
Pd       6.10718542       2.70292306       1.50000000  F       0.00000000       0.00000000       0.00000000      -0.00006792      -0.00026815      -0.90371047
Pd       7.63398177       0.00000000       3.02679635  F       0.00000000       0.00000000       0.00000000       0.00003983      -0.00005569       0.04997392
Pd       1.50196762       5.42402517      12.02253868  T       0.00000000       0.00000000       0.00000000       0.00006305       0.00983477       0.00220920
Pd       6.10316467       8.11337872       7.64563254  T       0.00000000       0.00000000       0.00000000      -0.00337922      -0.00210852       0.00778214
Pd       0.00000079       8.10876600       4.56559869  F       0.00000000       0.00000000       0.00000000       0.00101090      -0.00176166       0.10880257
Pd       6.10718651       8.10875952       4.56558968  F       0.00000000       0.00000000       0.00000000       0.00073426      -0.00277493       0.11072231
Pd       1.52680247       5.40584247       6.11658534  F       0.00000000       0.00000000       0.00000000       0.00746495       0.00178913      -0.03752768
Pd       7.63398177       5.40584612       3.02679635  F       0.00000000       0.00000000       0.00000000       0.00059074      -0.00019320       0.04904766
Pd       6.10718542       8.10876919       1.50000000  F       0.00000000       0.00000000       0.00000000      -0.00007571       0.00000438      -0.90381788
Pd      -0.00588741       8.11153427       7.64518445  T       0.00000000       0.00000000       0.00000000       0.00113583       0.00289919       0.00075326
Pd       7.59185877      10.79580202      12.07445431  T       0.00000000       0.00000000       0.00000000      -0.00389626       0.02107241       0.00776643
Pd       6.09504362       2.71783729      10.77592081  T       0.00000000       0.00000000       0.00000000      -0.00544599      -0.02744540      -0.00251170
Pd       1.51666068       5.40786754       9.13708555  T       0.00000000       0.00000000       0.00000000      -0.00860494      -0.00837449      -0.00782495
Pd       7.62426320       0.01613853       9.15458229  T       0.00000000       0.00000000       0.00000000       0.00046834       0.00459451      -0.01110716
Pd       6.10496002       2.70489276       7.65277021  T       0.00000000       0.00000000       0.00000000      -0.00397068      -0.00308461       0.02258895
Pd      12.20356587       8.12045534      10.74277310  T       0.00000000       0.00000000       0.00000000      -0.00210740      -0.01736590       0.02017813
Pd       7.63399583      10.81167532       6.11657540  F       0.00000000       0.00000000       0.00000000       0.00244513       0.00864320      -0.05210229
Pd       6.10718592       2.70292523       4.56558724  F       0.00000000       0.00000000       0.00000000       0.00043518      -0.00075325       0.12458360
Pd       1.52679635       5.40584612       3.02679635  F       0.00000000       0.00000000       0.00000000       0.00044561      -0.00005300       0.04864977
Pd       0.00000000       2.70292306       1.50000000  F       0.00000000       0.00000000       0.00000000       0.00004577      -0.00023232      -0.90414268
C        9.22037775       1.83907658      13.71679808  T       0.00000000       0.00000000       0.00000000      -0.01194102      -0.01911580       0.00603835
O        8.62248294       1.23293784      14.57182331  T       0.00000000       0.00000000       0.00000000      -0.02622142       0.03595333      -0.00082281
O        0.30911192       1.68114819      15.41999467  T       0.00000000       0.00000000       0.00000000       0.00158965       0.04806576      -0.00228970
C        0.83480535       2.65798239      14.90652038  T       0.00000000       0.00000000       0.00000000       0.01835849      -0.04017693       0.01685555
H        0.57374159       3.70277015      15.22454337  T       0.00000000       0.00000000       0.00000000      -0.00160046      -0.00662772      -0.02538109
H        1.60925084       2.56990436      14.10791626  T       0.00000000       0.00000000       0.00000000       0.01484098       0.01279802      -0.02245298
H       -2.32971073       2.71025275      13.83976558  T       0.00000000       0.00000000       0.00000000      -0.00075154      -0.00479172      -0.01924599
