       N       E                     dE             d eps       ncg     rms          rms(c)
DAV:   1     0.579760451638E+03    0.57976E+03   -0.34655E+04  3608   0.171E+03
DAV:   2    -0.847711501749E+01   -0.58824E+03   -0.56736E+03  4032   0.486E+02
DAV:   3    -0.405855858311E+02   -0.32108E+02   -0.31760E+02  3788   0.118E+02
DAV:   4    -0.409885014908E+02   -0.40292E+00   -0.40241E+00  3796   0.142E+01
DAV:   5    -0.409930525425E+02   -0.45511E-02   -0.45504E-02  3712   0.153E+00    0.281E+01
DAV:   6    -0.356440918026E+02    0.53490E+01   -0.51691E+01  3696   0.654E+01    0.156E+01
DAV:   7    -0.321974783036E+02    0.34466E+01   -0.15222E+01  3612   0.358E+01    0.573E+00
DAV:   8    -0.321230327901E+02    0.74446E-01   -0.12606E+00  3672   0.654E+00    0.330E+00
DAV:   9    -0.320928360256E+02    0.30197E-01   -0.18777E-01  3756   0.360E+00    0.967E-01
DAV:  10    -0.320870318423E+02    0.58042E-02   -0.22850E-02  3676   0.142E+00    0.325E-01
DAV:  11    -0.320873490673E+02   -0.31722E-03   -0.28571E-03  3676   0.395E-01    0.131E-01
DAV:  12    -0.320873721832E+02   -0.23116E-04   -0.27729E-04  3696   0.104E-01    0.498E-02
DAV:  13    -0.320874003531E+02   -0.28170E-04   -0.61030E-05  3676   0.508E-02    0.246E-02
DAV:  14    -0.320874021705E+02   -0.18174E-05   -0.10887E-05  3680   0.225E-02    0.817E-03
DAV:  15    -0.320874014821E+02    0.68835E-06   -0.26426E-06  2520   0.138E-02
   1 F= -.33501421E+02 E0= -.33498199E+02  d E =-.644422E-02  mag=    -0.0016
