 vasp.6.4.3 19Mar24 (build Nov 27 2025 15:18:09) complex                         
 executed on              LinuxNV date 2026.06.04  16:46:42
 running    4 mpi-ranks, with    1 threads/rank, on    1 nodes
 distrk:  each k-point on    4 cores,    1 groups
 distr:  one band on NCORE=   1 cores,    4 groups
 OpenACC runtime initialized ...    0 GPUs detected


--------------------------------------------------------------------------------------------------------


 INCAR:
   SYSTEM = pddmc
   ENCUT = 520
   PREC = Accurate
   LASPH = .TRUE.
   ADDGRID = .TRUE.
   ISPIN = 2
   IVDW = 12
   EDIFF = 1e-06
   NELM = 200
   NELMIN = 5
   ALGO = Normal
   NCORE = 1
   LREAL = .FALSE.
   LWAVE = .FALSE.
   LCHARG = .FALSE.
   LORBIT = 11
   ISYM = 2
   IBRION = -1
   NSW = 0
   ISIF = 0
   ISMEAR = 0
   SIGMA = 0.05
   EDIFFG = -0.01

 POTCAR:    PAW_PBE Pd_pv 28Jan2005               
 POTCAR:    PAW_PBE O 08Apr2002                   
 -----------------------------------------------------------------------------
|                                                                             |
|           W    W    AA    RRRRR   N    N  II  N    N   GGGG   !!!           |
|           W    W   A  A   R    R  NN   N  II  NN   N  G    G  !!!           |
|           W    W  A    A  R    R  N N  N  II  N N  N  G       !!!           |
|           W WW W  AAAAAA  RRRRR   N  N N  II  N  N N  G  GGG   !            |
|           WW  WW  A    A  R   R   N   NN  II  N   NN  G    G                |
|           W    W  A    A  R    R  N    N  II  N    N   GGGG   !!!           |
|                                                                             |
|     You use a magnetic or noncollinear calculation, but did not specify     |
|     the initial magnetic moment with the MAGMOM tag. Note that a            |
|     default of 1 will be used for all atoms. This ferromagnetic setup       |
|     may break the symmetry of the crystal, in particular it may rule        |
|     out finding an antiferromagnetic solution. Thence, we recommend         |
|     setting the initial magnetic moment manually or verifying carefully     |
|     that this magnetic setup is desired.                                    |
|                                                                             |
 -----------------------------------------------------------------------------

 POTCAR:    PAW_PBE Pd_pv 28Jan2005               
   SHA256 =  3ce661545bbde58da9a95410dea32907db2844916708bcd35bbe03ee66324d7f Pd_pv/POTCAR          
   COPYR  = (c) Copyright 28Jan2005 Georg Kresse                                                    
   COPYR  = This file is part of the software VASP. Any use, copying, and all other rights are regul
   COPYR  = If you do not have a valid VASP license, you may not use, copy or distribute this file. 
   VRHFIN =Pd: 4p5s4d                                                                               
   LEXCH  = PE                                                                                      
   EATOM  =  2621.5550 eV,  192.6789 Ry                                                             
                                                                                                    
   TITEL  = PAW_PBE Pd_pv 28Jan2005                                                                 
   LULTRA =        F    use ultrasoft PP ?                                                          
   IUNSCR =        1    unscreen: 0-lin 1-nonlin 2-no                                               
   RPACOR =    2.250    partial core radius                                                         
   POMASS =  106.420; ZVAL   =   16.000    mass and valenz                                          
   RCORE  =    2.400    outmost cutoff radius                                                       
   RWIGS  =    2.300; RWIGS  =    1.217    wigner-seitz radius (au A)                               
   ENMAX  =  250.925; ENMIN  =  188.194 eV                                                          
   ICORE  =        3    local potential                                                             
   LCOR   =        T    correct aug charges                                                         
   LPAW   =        T    paw PP                                                                      
   EAUG   =  473.067                                                                                
   DEXC   =    0.000                                                                                
   RMAX   =    2.449    core radius for proj-oper                                                   
   RAUG   =    1.300    factor for augmentation sphere                                              
   RDEP   =    2.405    radius for radial grids                                                     
   RDEPT  =    1.966    core radius for aug-charge                                                  
                                                                                                    
   Atomic configuration                                                                             
   11 entries                                                                                       
     n  l   j            E        occ.                                                              
     1  0  0.50    -24164.6632   2.0000                                                             
     2  0  0.50     -3530.9218   2.0000                                                             
     2  1  1.50     -3165.6822   6.0000                                                             
     3  0  0.50      -639.4578   2.0000                                                             
     3  1  1.50      -519.4532   6.0000                                                             
     3  2  2.50      -328.9758  10.0000                                                             
     4  0  0.50       -88.7014   2.0000                                                             
     4  1  1.50       -54.4541   6.0000                                                             
     4  2  2.50        -6.6878   9.0000                                                             
     5  0  0.50        -4.3543   1.0000                                                             
     4  3  2.50        -1.3606   0.0000                                                             
   Description                                                                                      
     l       E           TYP  RCUT    TYP  RCUT                                                     
     1    -54.4540524     23  2.100                                                                 
     1      4.0817478     23  2.100                                                                 
     2     -6.6878326     23  2.400                                                                 
     2     -4.0817478     23  2.400                                                                 
     0     -4.3542962     23  2.400                                                                 
     0     13.6058260     23  2.400                                                                 
     3     -5.4423304     23  2.400                                                                 
  local pseudopotential read in
  partial core-charges read in
  partial kinetic energy density read in
  atomic valenz-charges read in
  non local Contribution for L=            1  read in
    real space projection operators read in
  non local Contribution for L=            1  read in
    real space projection operators read in
  non local Contribution for L=            2  read in
    real space projection operators read in
  non local Contribution for L=            2  read in
    real space projection operators read in
  non local Contribution for L=            0  read in
    real space projection operators read in
  non local Contribution for L=            0  read in
    real space projection operators read in
    PAW grid and wavefunctions read in
 
   number of l-projection  operators is LMAX  =            6
   number of lm-projection operators is LMMAX =           18
 
 POTCAR:    PAW_PBE O 08Apr2002                   
   SHA256 =  818f92134a0a090dccd8ba1447fa70422a3b330e708bb4f08108d8ae51209ddf O/POTCAR              
   COPYR  = (c) Copyright 08Apr2002 Georg Kresse                                                    
   COPYR  = This file is part of the software VASP. Any use, copying, and all other rights are regul
   COPYR  = If you do not have a valid VASP license, you may not use, copy or distribute this file. 
   VRHFIN =O: s2p4                                                                                  
   LEXCH  = PE                                                                                      
   EATOM  =   432.3788 eV,   31.7789 Ry                                                             
                                                                                                    
   TITEL  = PAW_PBE O 08Apr2002                                                                     
   LULTRA =        F    use ultrasoft PP ?                                                          
   IUNSCR =        1    unscreen: 0-lin 1-nonlin 2-no                                               
   RPACOR =    1.200    partial core radius                                                         
   POMASS =   16.000; ZVAL   =    6.000    mass and valenz                                          
   RCORE  =    1.520    outmost cutoff radius                                                       
   RWIGS  =    1.550; RWIGS  =    0.820    wigner-seitz radius (au A)                               
   ENMAX  =  400.000; ENMIN  =  300.000 eV                                                          
   ICORE  =        2    local potential                                                             
   LCOR   =        T    correct aug charges                                                         
   LPAW   =        T    paw PP                                                                      
   EAUG   =  605.392                                                                                
   DEXC   =    0.000                                                                                
   RMAX   =    1.553    core radius for proj-oper                                                   
   RAUG   =    1.300    factor for augmentation sphere                                              
   RDEP   =    1.550    radius for radial grids                                                     
   RDEPT  =    1.329    core radius for aug-charge                                                  
                                                                                                    
   Atomic configuration                                                                             
    4 entries                                                                                       
     n  l   j            E        occ.                                                              
     1  0  0.50      -514.6923   2.0000                                                             
     2  0  0.50       -23.9615   2.0000                                                             
     2  1  0.50        -9.0305   4.0000                                                             
     3  2  1.50        -9.5241   0.0000                                                             
   Description                                                                                      
     l       E           TYP  RCUT    TYP  RCUT                                                     
     0    -23.9615318     23  1.200                                                                 
     0     -9.5240782     23  1.200                                                                 
     1     -9.0304911     23  1.520                                                                 
     1      8.1634956     23  1.520                                                                 
     2     -9.5240782      7  1.500                                                                 
  local pseudopotential read in
  partial core-charges read in
  partial kinetic energy density read in
  kinetic energy density of atom read in
  atomic valenz-charges read in
  non local Contribution for L=            0  read in
    real space projection operators read in
  non local Contribution for L=            0  read in
    real space projection operators read in
  non local Contribution for L=            1  read in
    real space projection operators read in
  non local Contribution for L=            1  read in
    real space projection operators read in
    PAW grid and wavefunctions read in
 
   number of l-projection  operators is LMAX  =            4
   number of lm-projection operators is LMMAX =            8
 
  PAW_PBE Pd_pv 28Jan2005               :
 energy of atom  1       EATOM=-2621.5550
 kinetic energy error for atom=    0.0088 (will be added to EATOM!!)
  PAW_PBE O 08Apr2002                   :
 energy of atom  2       EATOM= -432.3788
 kinetic energy error for atom=    0.0208 (will be added to EATOM!!)
 
 
 POSCAR: Pd O
  positions in cartesian coordinates
  No initial velocities read in
 IVDW         = 12
 VDW_S6       =    1.0000
 VDW_S8       =    0.7875
 VDW_A1       =    0.4289
 VDW_A2       =    4.4407
 VDW_RADIUS   =   50.2022 A
 VDW_CNRADIUS =   21.1671 A


 exchange-correlation table for PE
   RHO(1)=    0.500       N(1)  =     2000
   RHO(2)=  100.500       N(2)  =     4000
 


--------------------------------------------------------------------------------------------------------


 ion  position               nearest neighbor table
   1  0.500  0.500  0.500-   3 1.97   4 1.97   5 2.00   6 2.00   5 2.00   6 2.00
   2  0.000  0.000  0.000-   5 1.97   6 1.97   3 2.00   4 2.00   3 2.00   4 2.00
   3  0.808  0.192  0.500-   1 1.97   2 2.00   2 2.00
   4  0.192  0.808  0.500-   1 1.97   2 2.00   2 2.00
   5  0.308  0.308  0.000-   2 1.97   1 2.00   1 2.00
   6  0.692  0.692  0.000-   2 1.97   1 2.00   1 2.00
 
  LATTYP: Found a simple tetragonal cell.
 ALAT       =     4.5222304600
 C/A-ratio  =     0.6957349162
  
  Lattice vectors:
  
 A1 = (   4.5222304600,   0.0000000000,   0.0000000000)
 A2 = (   0.0000000000,   4.5222304600,   0.0000000000)
 A3 = (   0.0000000000,   0.0000000000,   3.1462736300)


Analysis of symmetry for initial positions (statically):
=====================================================================
 Subroutine PRICEL returns:
 Original cell was already a primitive cell.
 

 Routine SETGRP: Setting up the symmetry group for a 
 simple tetragonal supercell.


 Subroutine GETGRP returns: Found 16 space group operations
 (whereof  8 operations were pure point group operations)
 out of a pool of 16 trial point group operations.


The static configuration has the point symmetry D_2h.
 The point group associated with its full space group is D_4h.


Analysis of symmetry for dynamics (positions and initial velocities):
=====================================================================
 Subroutine PRICEL returns:
 Original cell was already a primitive cell.
 

 Routine SETGRP: Setting up the symmetry group for a 
 simple tetragonal supercell.


 Subroutine GETGRP returns: Found 16 space group operations
 (whereof  8 operations were pure point group operations)
 out of a pool of 16 trial point group operations.


The dynamic configuration has the point symmetry D_2h.
 The point group associated with its full space group is D_4h.


Analysis of structural, dynamic, and magnetic symmetry:
=====================================================================
 Subroutine PRICEL returns:
 Original cell was already a primitive cell.
 

 Routine SETGRP: Setting up the symmetry group for a 
 simple tetragonal supercell.


 Subroutine GETGRP returns: Found 16 space group operations
 (whereof  8 operations were pure point group operations)
 out of a pool of 16 trial point group operations.


The overall configuration has the point symmetry D_2h.
 The point group associated with its full space group is D_4h.


 Subroutine INISYM returns: Found 16 space group operations
 (whereof  8 operations are pure point group operations),
 and found     1 'primitive' translations


----------------------------------------------------------------------------------------

                                     Primitive cell                                     

  volume of cell :      64.3431

  direct lattice vectors                    reciprocal lattice vectors
     4.522230460  0.000000000  0.000000000     0.221129818 -0.000000000  0.000000000
     0.000000000  4.522230460  0.000000000     0.000000000  0.221129818  0.000000000
     0.000000000  0.000000000  3.146273630    -0.000000000 -0.000000000  0.317836310

  length of vectors
     4.522230460  4.522230460  3.146273630     0.221129818  0.221129818  0.317836310

  position of ions in fractional coordinates (direct lattice)
     0.500000000  0.500000000  0.500000000
     0.000000000  0.000000000  0.000000000
     0.808151920  0.191848080  0.500000000
     0.191848080  0.808151920  0.500000000
     0.308151920  0.308151920  1.000000000
     0.691848080  0.691848080  1.000000000

  ion indices of the primitive-cell ions
   primitive index   ion index
                 1           1
                 2           2
                 3           3
                 4           4
                 5           5
                 6           6

----------------------------------------------------------------------------------------

 
 
 KPOINTS: Automatic mesh                          

Automatic generation of k-mesh.
 Grid dimensions read from file:
 generate k-points for:    4    4    6

 Generating k-lattice:

  Cartesian coordinates                     Fractional coordinates (reciprocal lattice)
     0.055282455 -0.000000000  0.000000000     0.250000000 -0.000000000  0.000000000
     0.000000000  0.055282455  0.000000000     0.000000000  0.250000000  0.000000000
    -0.000000000 -0.000000000  0.052972718    -0.000000000 -0.000000000  0.166666667

  Length of vectors
     0.055282455  0.055282455  0.052972718

  Shift w.r.t. Gamma in fractional coordinates (k-lattice)
     0.000000000  0.000000000  0.000000000

 
 Subroutine IBZKPT returns following result:
 ===========================================
 
 Found     24 irreducible k-points:
 
 Following reciprocal coordinates:
            Coordinates               Weight
  0.000000  0.000000  0.000000      1.000000
  0.250000  0.000000  0.000000      4.000000
  0.500000  0.000000  0.000000      2.000000
  0.250000  0.250000  0.000000      4.000000
  0.500000  0.250000  0.000000      4.000000
  0.500000  0.500000  0.000000      1.000000
  0.000000  0.000000  0.166667      2.000000
  0.250000  0.000000  0.166667      8.000000
  0.500000  0.000000  0.166667      4.000000
  0.250000  0.250000  0.166667      8.000000
  0.500000  0.250000  0.166667      8.000000
  0.500000  0.500000  0.166667      2.000000
  0.000000  0.000000  0.333333      2.000000
  0.250000  0.000000  0.333333      8.000000
  0.500000  0.000000  0.333333      4.000000
  0.250000  0.250000  0.333333      8.000000
  0.500000  0.250000  0.333333      8.000000
  0.500000  0.500000  0.333333      2.000000
  0.000000  0.000000  0.500000      1.000000
  0.250000  0.000000  0.500000      4.000000
  0.500000  0.000000  0.500000      2.000000
  0.250000  0.250000  0.500000      4.000000
  0.500000  0.250000  0.500000      4.000000
  0.500000  0.500000  0.500000      1.000000
 
 Following cartesian coordinates:
            Coordinates               Weight
  0.000000  0.000000  0.000000      1.000000
  0.055282  0.000000  0.000000      4.000000
  0.110565  0.000000  0.000000      2.000000
  0.055282  0.055282  0.000000      4.000000
  0.110565  0.055282  0.000000      4.000000
  0.110565  0.110565  0.000000      1.000000
  0.000000  0.000000  0.052973      2.000000
  0.055282  0.000000  0.052973      8.000000
  0.110565  0.000000  0.052973      4.000000
  0.055282  0.055282  0.052973      8.000000
  0.110565  0.055282  0.052973      8.000000
  0.110565  0.110565  0.052973      2.000000
  0.000000  0.000000  0.105945      2.000000
  0.055282  0.000000  0.105945      8.000000
  0.110565  0.000000  0.105945      4.000000
  0.055282  0.055282  0.105945      8.000000
  0.110565  0.055282  0.105945      8.000000
  0.110565  0.110565  0.105945      2.000000
  0.000000  0.000000  0.158918      1.000000
  0.055282  0.000000  0.158918      4.000000
  0.110565  0.000000  0.158918      2.000000
  0.055282  0.055282  0.158918      4.000000
  0.110565  0.055282  0.158918      4.000000
  0.110565  0.110565  0.158918      1.000000
 


--------------------------------------------------------------------------------------------------------




 Dimension of arrays:
   k-points           NKPTS =     24   k-points in BZ     NKDIM =     24   number of bands    NBANDS=     36
   number of dos      NEDOS =    301   number of ions     NIONS =      6
   non local maximal  LDIM  =      6   non local SUM 2l+1 LMDIM =     18
   total plane-waves  NPLWV =  31104
   max r-space proj   IRMAX =      1   max aug-charges    IRDMAX= 155006
   dimension x,y,z NGX =    36 NGY =   36 NGZ =   24
   dimension x,y,z NGXF=    72 NGYF=   72 NGZF=   48
   support grid    NGXF=   144 NGYF=  144 NGZF=   96
   ions per type =               2   4
   NGX,Y,Z   is equivalent  to a cutoff of  13.23, 13.23, 12.68 a.u.
   NGXF,Y,Z  is equivalent  to a cutoff of  26.47, 26.47, 25.36 a.u.

 SYSTEM =  pddmc                                   
 POSCAR =  Pd O                                    

 Startparameter for this run:
   NWRITE =      2    write-flag & timer
   PREC   = accura    normal or accurate (medium, high low for compatibility)
   ISTART =      0    job   : 0-new  1-cont  2-samecut
   ICHARG =      2    charge: 1-file 2-atom 10-const
   ISPIN  =      2    spin polarized calculation?
   LNONCOLLINEAR =      F non collinear calculations
   LSORBIT =      F    spin-orbit coupling
   INIWAV =      1    electr: 0-lowe 1-rand  2-diag
   LASPH  =      T    aspherical Exc in radial PAW
 Electronic Relaxation 1
   ENCUT  =  520.0 eV  38.22 Ry    6.18 a.u.   8.41  8.41  5.85*2*pi/ulx,y,z
   ENINI  =  520.0     initial cutoff
   ENAUG  =  605.4 eV  augmentation charge cutoff
   NELM   =    200;   NELMIN=  5; NELMDL= -5     # of ELM steps 
   EDIFF  = 0.1E-05   stopping-criterion for ELM
   LREAL  =      F    real-space projection
   NLSPLINE    = F    spline interpolate recip. space projectors
   LCOMPAT=      F    compatible to vasp.4.4
   GGA_COMPAT  = T    GGA compatible to vasp.4.4-vasp.4.6
   LMAXPAW     = -100 max onsite density
   LMAXMIX     =    2 max onsite mixed and CHGCAR
   VOSKOWN=      0    Vosko Wilk Nusair interpolation
   ROPT   =    0.00000   0.00000
 Ionic relaxation
   EDIFFG = -.1E-01   stopping-criterion for IOM
   NSW    =      0    number of steps for IOM
   NBLOCK =      1;   KBLOCK =      1    inner block; outer block 
   IBRION =     -1    ionic relax: 0-MD 1-quasi-New 2-CG
   NFREE  =      0    steps in history (QN), initial steepest desc. (CG)
   ISIF   =      0    stress and relaxation
   IWAVPR =     10    prediction:  0-non 1-charg 2-wave 3-comb
   ISYM   =      2    0-nonsym 1-usesym 2-fastsym
   LCORR  =      T    Harris-Foulkes like correction to forces

   POTIM  = 0.5000    time-step for ionic-motion
   TEIN   =    0.0    initial temperature
   TEBEG  =    0.0;   TEEND  =   0.0 temperature during run
   SMASS  =  -3.00    Nose mass-parameter (am)
   estimated Nose-frequenzy (Omega)   =  0.10E-29 period in steps = 0.13E+47 mass=  -0.467E-27a.u.
   SCALEE = 1.0000    scale energy and forces
   NPACO  =    256;   APACO  = 10.0  distance and # of slots for P.C.
   PSTRESS=    0.0 pullay stress

  Mass of Ions in am
   POMASS = 106.42 16.00
  Ionic Valenz
   ZVAL   =  16.00  6.00
  Atomic Wigner-Seitz radii
   RWIGS  =  -1.00 -1.00
  virtual crystal weights 
   VCA    =   1.00  1.00
   NELECT =      56.0000    total number of electrons
   NUPDOWN=      -1.0000    fix difference up-down

 DOS related values:
   EMIN   =  10.00;   EMAX   =-10.00  energy-range for DOS
   EFERMI =   0.00;   METHOD = LEGACY      
   ISMEAR =     0;   SIGMA  =   0.05  broadening in eV -4-tet -1-fermi 0-gaus

 Electronic relaxation 2 (details)
   IALGO  =     38    algorithm
   LDIAG  =      T    sub-space diagonalisation (order eigenvalues)
   LSUBROT=      F    optimize rotation matrix (better conditioning)
   TURBO    =      0    0=normal 1=particle mesh
   IRESTART =      0    0=no restart 2=restart with 2 vectors
   NREBOOT  =      0    no. of reboots
   NMIN     =      0    reboot dimension
   EREF     =   0.00    reference energy to select bands
   IMIX   =      4    mixing-type and parameters
     AMIX     =   0.40;   BMIX     =  1.00
     AMIX_MAG =   1.60;   BMIX_MAG =  1.00
     AMIN     =   0.10
     WC   =   100.;   INIMIX=   1;  MIXPRE=   1;  MAXMIX= -45

 Intra band minimization:
   WEIMIN = 0.0000     energy-eigenvalue tresh-hold
   EBREAK =  0.69E-08  absolut break condition
   DEPER  =   0.30     relativ break condition  

   TIME   =   0.40     timestep for ELM

  volume/ion in A,a.u.               =      10.72        72.37
  Fermi-wavevector in a.u.,A,eV,Ry     =   1.563040  2.953718 33.240331  2.443095
  Thomas-Fermi vector in A             =   2.665870
 
 Write flags
   LWAVE        =      F    write WAVECAR
   LDOWNSAMPLE  =      F    k-point downsampling of WAVECAR
   LCHARG       =      F    write CHGCAR
   LVTOT        =      F    write LOCPOT, total local potential
   LVHAR        =      F    write LOCPOT, Hartree potential only
   WRT_POTENTIAL= false  ! write potential to hdf5 file
   LELF         =      F    write electronic localiz. function (ELF)
   LORBIT       =     11    0 simple, 1 ext, 2 COOP (PROOUT), +10 PAW based schemes


 Dipole corrections
   LMONO      =      F    monopole corrections only (constant potential shift)
   LDIPOL     =      F    correct potential (dipole corrections)
   IDIPOL     =      0    1-x, 2-y, 3-z, 4-all directions 
   EPSILON    =  1.0000000 bulk dielectric constant
   LVACPOTAV  =      F  vacuum potentials using an averaging scheme for the charge density
   VACPOTFLAT =  0.1000000 required flatness to determine vacuum potential
 Exchange correlation treatment:
   GGA     = PE    functional components
   XC_C    = 1    coefficients multiplying the functional components
   LIBXC   =     F    Libxc                    
   VOSKOWN =     0    Vosko Wilk Nusair interpolation
   LHFCALC =     F    Hartree Fock is set to
   LHFONE  =     F    Hartree Fock one center treatment
   AEXX    =    0.0000 exact exchange contribution

 Parameters of functionals:
   PE:
     No parameter
 
 Van der Waals corrections
   IVDW    =    12    specifies the selected vdW correction

 Linear response parameters
   LEPSILON=     F    determine dielectric tensor
   LRPA    =     F    only Hartree local field effects (RPA)
   LNABLA  =     F    use nabla operator in PAW spheres
   LVEL    =     F    velocity operator in full k-point grid
   CSHIFT  =0.1000    complex shift for real part using Kramers Kronig
   OMEGAMAX=  -1.0    maximum frequency
   DEG_THRESHOLD= 0.2000000E-02 threshold for treating states as degnerate
   RTIME   =   -0.100 relaxation time in fs
  (WPLASMAI=    0.000 imaginary part of plasma frequency in eV, 0.658/RTIME)
   DFIELD  = 0.0000000 0.0000000 0.0000000 field for delta impulse in time
 
  Optional k-point grid parameters
   LKPOINTS_OPT  =     F    use optional k-point grid
   KPOINTS_OPT_MODE=     1    mode for optional k-point grid
 
 Orbital magnetization related:
   ORBITALMAG=     F  switch on orbital magnetization
   LCHIMAG   =     F  perturbation theory with respect to B field
   DQ        =  0.001000  dq finite difference perturbation B field
   LLRAUG    =     F  two centre corrections for induced B field
   LBONE     =     F  B-component reconstruction in AE one-centre
   LVGVCALC  =     T  calculate vGv susceptibility
   LVGVAPPL  =     F  apply vGv susceptibility instead of pGv for G=0

 Random number generation:
   RANDOM_GENERATOR = DEFAULT
   PCG_SEED         = not used


--------------------------------------------------------------------------------------------------------


 Static calculation
 charge density and potential will be updated during run
 spin polarized calculation
 Variant of blocked Davidson
 Davidson routine will perform the subspace rotation
 perform sub-space diagonalisation
    after iterative eigenvector-optimisation
 modified Broyden-mixing scheme, WC =      100.0
 initial mixing is a Kerker type mixing with AMIX =  0.4000 and BMIX =      1.0000
 Hartree-type preconditioning will be used
 using additional bands             8
 reciprocal scheme for non local part
 use partial core corrections
 calculate Harris-corrections to forces 
   (improved forces if not selfconsistent)
 use gradient corrections 
 use of overlap-Matrix (Vanderbilt PP)
 Gauss-broadening in eV      SIGMA  =   0.05


--------------------------------------------------------------------------------------------------------


  energy-cutoff  :      520.00
  volume of cell :       64.34
      direct lattice vectors                 reciprocal lattice vectors
     4.522230460  0.000000000  0.000000000     0.221129818 -0.000000000  0.000000000
     0.000000000  4.522230460  0.000000000     0.000000000  0.221129818  0.000000000
     0.000000000  0.000000000  3.146273630    -0.000000000 -0.000000000  0.317836310

  length of vectors
     4.522230460  4.522230460  3.146273630     0.221129818  0.221129818  0.317836310


 
 k-points in units of 2pi/SCALE and weight: Automatic mesh                          
   0.00000000  0.00000000  0.00000000       0.010
   0.05528245  0.00000000  0.00000000       0.042
   0.11056491  0.00000000  0.00000000       0.021
   0.05528245  0.05528245  0.00000000       0.042
   0.11056491  0.05528245  0.00000000       0.042
   0.11056491  0.11056491  0.00000000       0.010
   0.00000000  0.00000000  0.05297272       0.021
   0.05528245  0.00000000  0.05297272       0.083
   0.11056491  0.00000000  0.05297272       0.042
   0.05528245  0.05528245  0.05297272       0.083
   0.11056491  0.05528245  0.05297272       0.083
   0.11056491  0.11056491  0.05297272       0.021
   0.00000000  0.00000000  0.10594544       0.021
   0.05528245  0.00000000  0.10594544       0.083
   0.11056491  0.00000000  0.10594544       0.042
   0.05528245  0.05528245  0.10594544       0.083
   0.11056491  0.05528245  0.10594544       0.083
   0.11056491  0.11056491  0.10594544       0.021
   0.00000000  0.00000000  0.15891815       0.010
   0.05528245  0.00000000  0.15891815       0.042
   0.11056491  0.00000000  0.15891815       0.021
   0.05528245  0.05528245  0.15891815       0.042
   0.11056491  0.05528245  0.15891815       0.042
   0.11056491  0.11056491  0.15891815       0.010
 
 k-points in reciprocal lattice and weights: Automatic mesh                          
   0.00000000  0.00000000  0.00000000       0.010
   0.25000000  0.00000000  0.00000000       0.042
   0.50000000  0.00000000  0.00000000       0.021
   0.25000000  0.25000000  0.00000000       0.042
   0.50000000  0.25000000  0.00000000       0.042
   0.50000000  0.50000000  0.00000000       0.010
   0.00000000  0.00000000  0.16666667       0.021
   0.25000000  0.00000000  0.16666667       0.083
   0.50000000  0.00000000  0.16666667       0.042
   0.25000000  0.25000000  0.16666667       0.083
   0.50000000  0.25000000  0.16666667       0.083
   0.50000000  0.50000000  0.16666667       0.021
   0.00000000  0.00000000  0.33333333       0.021
   0.25000000  0.00000000  0.33333333       0.083
   0.50000000  0.00000000  0.33333333       0.042
   0.25000000  0.25000000  0.33333333       0.083
   0.50000000  0.25000000  0.33333333       0.083
   0.50000000  0.50000000  0.33333333       0.021
   0.00000000  0.00000000  0.50000000       0.010
   0.25000000  0.00000000  0.50000000       0.042
   0.50000000  0.00000000  0.50000000       0.021
   0.25000000  0.25000000  0.50000000       0.042
   0.50000000  0.25000000  0.50000000       0.042
   0.50000000  0.50000000  0.50000000       0.010
 
 position of ions in fractional coordinates (direct lattice) 
   0.50000000  0.50000000  0.50000000
   0.00000000  0.00000000  0.00000000
   0.80815192  0.19184808  0.50000000
   0.19184808  0.80815192  0.50000000
   0.30815192  0.30815192  0.00000000
   0.69184808  0.69184808  0.00000000
 
 position of ions in cartesian coordinates  (Angst):
   2.26111523  2.26111523  1.57313682
   0.00000000  0.00000000  0.00000000
   3.65464923  0.86758123  1.57313682
   0.86758123  3.65464923  1.57313682
   1.39353400  1.39353400  0.00000000
   3.12869646  3.12869646  0.00000000
 


--------------------------------------------------------------------------------------------------------


 k-point     1 :   0.0000 0.0000 0.0000  plane waves:    1751
 k-point     2 :   0.2500 0.0000 0.0000  plane waves:    1729
 k-point     3 :   0.5000 0.0000 0.0000  plane waves:    1740
 k-point     4 :   0.2500 0.2500 0.0000  plane waves:    1732
 k-point     5 :   0.5000 0.2500 0.0000  plane waves:    1718
 k-point     6 :   0.5000 0.5000 0.0000  plane waves:    1720
 k-point     7 :   0.0000 0.0000 0.1667  plane waves:    1720
 k-point     8 :   0.2500 0.0000 0.1667  plane waves:    1732
 k-point     9 :   0.5000 0.0000 0.1667  plane waves:    1732
 k-point    10 :   0.2500 0.2500 0.1667  plane waves:    1729
 k-point    11 :   0.5000 0.2500 0.1667  plane waves:    1730
 k-point    12 :   0.5000 0.5000 0.1667  plane waves:    1712
 k-point    13 :   0.0000 0.0000 0.3333  plane waves:    1724
 k-point    14 :   0.2500 0.0000 0.3333  plane waves:    1737
 k-point    15 :   0.5000 0.0000 0.3333  plane waves:    1742
 k-point    16 :   0.2500 0.2500 0.3333  plane waves:    1731
 k-point    17 :   0.5000 0.2500 0.3333  plane waves:    1738
 k-point    18 :   0.5000 0.5000 0.3333  plane waves:    1716
 k-point    19 :   0.0000 0.0000 0.5000  plane waves:    1740
 k-point    20 :   0.2500 0.0000 0.5000  plane waves:    1740
 k-point    21 :   0.5000 0.0000 0.5000  plane waves:    1732
 k-point    22 :   0.2500 0.2500 0.5000  plane waves:    1736
 k-point    23 :   0.5000 0.2500 0.5000  plane waves:    1736
 k-point    24 :   0.5000 0.5000 0.5000  plane waves:    1728

 maximum and minimum number of plane-waves per node :      1751     1712

 maximum number of plane-waves:      1751
 maximum index in each direction: 
   IXMAX=    8   IYMAX=    8   IZMAX=    5
   IXMIN=   -8   IYMIN=   -8   IZMIN=   -6


 serial   3D FFT for wavefunctions
 parallel 3D FFT for charge:
    minimum data exchange during FFTs selected (reduces bandwidth)


 total amount of memory used by VASP MPI-rank0    72112. kBytes
=======================================================================

   base      :      30000. kBytes
   nonl-proj :      12278. kBytes
   fftplans  :       9397. kBytes
   grid      :       7672. kBytes
   one-center:        186. kBytes
   wavefun   :      12579. kBytes
 
     INWAV:  cpu time      0.0000: real time      0.0001
 Broyden mixing: mesh for mixing (old mesh)
   NGX = 17   NGY = 17   NGZ = 11
  (NGX  = 72   NGY  = 72   NGZ  = 48)
  gives a total of   3179 points

 initial charge density was supplied:
 charge density of overlapping atoms calculated
 number of electron      56.0000000 magnetization       6.0000000
 keeping initial charge density in first step


--------------------------------------------------------------------------------------------------------


 Maximum index for augmentation-charges         37643 (set IRDMAX)


--------------------------------------------------------------------------------------------------------


 First call to EWALD:  gamma=   0.442
 Maximum number of real-space cells 2x 2x 3
 Maximum number of reciprocal cells 3x 3x 2

    FEWALD:  cpu time      0.0005: real time      0.0005


--------------------------------------- Ionic step        1  -------------------------------------------




--------------------------------------- Iteration      1(   1)  ---------------------------------------


    POTLOK:  cpu time      0.0500: real time      0.0500
    SETDIJ:  cpu time      0.5838: real time      0.5897
     EDDAV:  cpu time      2.0738: real time      2.0909
       DOS:  cpu time      0.0005: real time      0.0005
    --------------------------------------------
      LOOP:  cpu time      2.7082: real time      2.7311

 eigenvalue-minimisations  :  3608
 total energy-change (2. order) : 0.5797605E+03  (-0.3465482E+04)
 number of electron      56.0000000 magnetization       6.0000000
 augmentation part       56.0000000 magnetization       6.0000000

 Free energy of the ion-electron system (eV)
  ---------------------------------------------------
  alpha Z        PSCENC =       302.45619847
  Ewald energy   TEWEN  =     -5214.09126118
  -Hartree energ DENC   =     -1860.07067583
  -exchange      EXHF   =         0.00000000
  -V(xc)+E(xc)   XCENC  =       277.13147676
  PAW double counting   =      5901.46612542    -5850.99266113
  entropy T*S    EENTRO =        -0.00162496
  eigenvalues    EBANDS =        51.33849736
  atomic energy  EATOM  =      6972.52437674
  Solvation  Ediel_sol  =         0.00000000
  ---------------------------------------------------
  free energy    TOTEN  =       579.76045164 eV

  energy without entropy =      579.76207660  energy(sigma->0) =      579.76126412


--------------------------------------------------------------------------------------------------------




--------------------------------------- Iteration      1(   2)  ---------------------------------------


     EDDAV:  cpu time      2.2197: real time      2.2211
       DOS:  cpu time      0.0004: real time      0.0004
    --------------------------------------------
      LOOP:  cpu time      2.2201: real time      2.2215

 eigenvalue-minimisations  :  4032
 total energy-change (2. order) :-0.5882376E+03  (-0.5673597E+03)
 number of electron      56.0000000 magnetization       6.0000000
 augmentation part       56.0000000 magnetization       6.0000000

 Free energy of the ion-electron system (eV)
  ---------------------------------------------------
  alpha Z        PSCENC =       302.45619847
  Ewald energy   TEWEN  =     -5214.09126118
  -Hartree energ DENC   =     -1860.07067583
  -exchange      EXHF   =         0.00000000
  -V(xc)+E(xc)   XCENC  =       277.13147676
  PAW double counting   =      5901.46612542    -5850.99266113
  entropy T*S    EENTRO =        -0.00418134
  eigenvalues    EBANDS =      -536.89651292
  atomic energy  EATOM  =      6972.52437674
  Solvation  Ediel_sol  =         0.00000000
  ---------------------------------------------------
  free energy    TOTEN  =        -8.47711502 eV

  energy without entropy =       -8.47293368  energy(sigma->0) =       -8.47502435


--------------------------------------------------------------------------------------------------------




--------------------------------------- Iteration      1(   3)  ---------------------------------------


     EDDAV:  cpu time      1.7319: real time      1.7321
       DOS:  cpu time      0.0004: real time      0.0004
    --------------------------------------------
      LOOP:  cpu time      1.7323: real time      1.7325

 eigenvalue-minimisations  :  3788
 total energy-change (2. order) :-0.3210847E+02  (-0.3176009E+02)
 number of electron      56.0000000 magnetization       6.0000000
 augmentation part       56.0000000 magnetization       6.0000000

 Free energy of the ion-electron system (eV)
  ---------------------------------------------------
  alpha Z        PSCENC =       302.45619847
  Ewald energy   TEWEN  =     -5214.09126118
  -Hartree energ DENC   =     -1860.07067583
  -exchange      EXHF   =         0.00000000
  -V(xc)+E(xc)   XCENC  =       277.13147676
  PAW double counting   =      5901.46612542    -5850.99266113
  entropy T*S    EENTRO =        -0.00480073
  eigenvalues    EBANDS =      -569.00436434
  atomic energy  EATOM  =      6972.52437674
  Solvation  Ediel_sol  =         0.00000000
  ---------------------------------------------------
  free energy    TOTEN  =       -40.58558583 eV

  energy without entropy =      -40.58078510  energy(sigma->0) =      -40.58318546


--------------------------------------------------------------------------------------------------------




--------------------------------------- Iteration      1(   4)  ---------------------------------------


     EDDAV:  cpu time      1.7409: real time      1.7410
       DOS:  cpu time      0.0004: real time      0.0004
    --------------------------------------------
      LOOP:  cpu time      1.7413: real time      1.7414

 eigenvalue-minimisations  :  3796
 total energy-change (2. order) :-0.4029157E+00  (-0.4024054E+00)
 number of electron      56.0000000 magnetization       6.0000000
 augmentation part       56.0000000 magnetization       6.0000000

 Free energy of the ion-electron system (eV)
  ---------------------------------------------------
  alpha Z        PSCENC =       302.45619847
  Ewald energy   TEWEN  =     -5214.09126118
  -Hartree energ DENC   =     -1860.07067583
  -exchange      EXHF   =         0.00000000
  -V(xc)+E(xc)   XCENC  =       277.13147676
  PAW double counting   =      5901.46612542    -5850.99266113
  entropy T*S    EENTRO =        -0.00490720
  eigenvalues    EBANDS =      -569.40717353
  atomic energy  EATOM  =      6972.52437674
  Solvation  Ediel_sol  =         0.00000000
  ---------------------------------------------------
  free energy    TOTEN  =       -40.98850149 eV

  energy without entropy =      -40.98359429  energy(sigma->0) =      -40.98604789


--------------------------------------------------------------------------------------------------------




--------------------------------------- Iteration      1(   5)  ---------------------------------------


     EDDAV:  cpu time      1.6742: real time      1.6744
       DOS:  cpu time      0.0004: real time      0.0004
    CHARGE:  cpu time      0.1757: real time      0.1757
    MIXING:  cpu time      0.0016: real time      0.0016
    --------------------------------------------
      LOOP:  cpu time      1.8520: real time      1.8522

 eigenvalue-minimisations  :  3712
 total energy-change (2. order) :-0.4551052E-02  (-0.4550424E-02)
 number of electron      56.0000002 magnetization       0.0900439
 augmentation part       16.7789052 magnetization      -0.0617967

 Broyden mixing:
  rms(total) = 0.28122E+01    rms(broyden)= 0.28117E+01
  rms(prec ) = 0.53326E+01
  weight for this iteration     100.00

 Free energy of the ion-electron system (eV)
  ---------------------------------------------------
  alpha Z        PSCENC =       302.45619847
  Ewald energy   TEWEN  =     -5214.09126118
  -Hartree energ DENC   =     -1860.07067583
  -exchange      EXHF   =         0.00000000
  -V(xc)+E(xc)   XCENC  =       277.13147676
  PAW double counting   =      5901.46612542    -5850.99266113
  entropy T*S    EENTRO =        -0.00491010
  eigenvalues    EBANDS =      -569.41172168
  atomic energy  EATOM  =      6972.52437674
  Solvation  Ediel_sol  =         0.00000000
  ---------------------------------------------------
  free energy    TOTEN  =       -40.99305254 eV

  energy without entropy =      -40.98814244  energy(sigma->0) =      -40.99059749


--------------------------------------------------------------------------------------------------------




--------------------------------------- Iteration      1(   6)  ---------------------------------------


    POTLOK:  cpu time      0.0477: real time      0.0477
    SETDIJ:  cpu time      0.5912: real time      0.5912
     EDDAV:  cpu time      1.8433: real time      1.8433
       DOS:  cpu time      0.0004: real time      0.0004
    CHARGE:  cpu time      0.1751: real time      0.1751
    MIXING:  cpu time      0.0016: real time      0.0016
    --------------------------------------------
      LOOP:  cpu time      2.6592: real time      2.6594

 eigenvalue-minimisations  :  3696
 total energy-change (2. order) : 0.5348961E+01  (-0.5169114E+01)
 number of electron      56.0000002 magnetization      -0.2883159
 augmentation part       18.3644917 magnetization       0.0209539

 Broyden mixing:
  rms(total) = 0.15624E+01    rms(broyden)= 0.15617E+01
  rms(prec ) = 0.33660E+01
  weight for this iteration     100.00

 eigenvalues of (default mixing * dielectric matrix)
  average eigenvalue GAMMA=   0.7306
  0.7306

 Free energy of the ion-electron system (eV)
  ---------------------------------------------------
  alpha Z        PSCENC =       302.45619847
  Ewald energy   TEWEN  =     -5214.09126118
  -Hartree energ DENC   =     -1784.44386003
  -exchange      EXHF   =         0.00000000
  -V(xc)+E(xc)   XCENC  =       276.15798836
  PAW double counting   =      6060.85591564    -6024.69515609
  entropy T*S    EENTRO =        -0.01115646
  eigenvalues    EBANDS =      -624.39713725
  atomic energy  EATOM  =      6972.52437674
  Solvation  Ediel_sol  =         0.00000000
  ---------------------------------------------------
  free energy    TOTEN  =       -35.64409180 eV

  energy without entropy =      -35.63293535  energy(sigma->0) =      -35.63851357


--------------------------------------------------------------------------------------------------------




--------------------------------------- Iteration      1(   7)  ---------------------------------------


    POTLOK:  cpu time      0.0470: real time      0.0471
    SETDIJ:  cpu time      0.5832: real time      0.5833
     EDDAV:  cpu time      1.8421: real time      1.8428
       DOS:  cpu time      0.0004: real time      0.0004
    CHARGE:  cpu time      0.1695: real time      0.1695
    MIXING:  cpu time      0.0017: real time      0.0017
    --------------------------------------------
      LOOP:  cpu time      2.6439: real time      2.6447

 eigenvalue-minimisations  :  3612
 total energy-change (2. order) : 0.3446613E+01  (-0.1522169E+01)
 number of electron      56.0000002 magnetization      -0.2382975
 augmentation part       17.4058398 magnetization      -0.1542579

 Broyden mixing:
  rms(total) = 0.57313E+00    rms(broyden)= 0.57286E+00
  rms(prec ) = 0.90376E+00
  weight for this iteration     100.00

 eigenvalues of (default mixing * dielectric matrix)
  average eigenvalue GAMMA=   0.6979
  0.8816  0.5142

 Free energy of the ion-electron system (eV)
  ---------------------------------------------------
  alpha Z        PSCENC =       302.45619847
  Ewald energy   TEWEN  =     -5214.09126118
  -Hartree energ DENC   =     -1819.76936849
  -exchange      EXHF   =         0.00000000
  -V(xc)+E(xc)   XCENC  =       276.58016902
  PAW double counting   =      6242.56219154    -6204.03162585
  entropy T*S    EENTRO =        -0.00335521
  eigenvalues    EBANDS =      -588.42480333
  atomic energy  EATOM  =      6972.52437674
  Solvation  Ediel_sol  =         0.00000000
  ---------------------------------------------------
  free energy    TOTEN  =       -32.19747830 eV

  energy without entropy =      -32.19412309  energy(sigma->0) =      -32.19580070


--------------------------------------------------------------------------------------------------------




--------------------------------------- Iteration      1(   8)  ---------------------------------------


    POTLOK:  cpu time      0.0954: real time      0.0955
    SETDIJ:  cpu time      0.5851: real time      0.5852
     EDDAV:  cpu time      1.9913: real time      1.9959
       DOS:  cpu time      0.0004: real time      0.0004
    CHARGE:  cpu time      0.1701: real time      0.1701
    MIXING:  cpu time      0.0014: real time      0.0014
    --------------------------------------------
      LOOP:  cpu time      2.8438: real time      2.8485

 eigenvalue-minimisations  :  3672
 total energy-change (2. order) : 0.7444551E-01  (-0.1260607E+00)
 number of electron      56.0000002 magnetization      -0.0368605
 augmentation part       17.5298737 magnetization       0.0314038

 Broyden mixing:
  rms(total) = 0.33036E+00    rms(broyden)= 0.33034E+00
  rms(prec ) = 0.46575E+00
  weight for this iteration     100.00

 eigenvalues of (default mixing * dielectric matrix)
  average eigenvalue GAMMA=   1.0470
  0.5564  0.8841  1.7006

 Free energy of the ion-electron system (eV)
  ---------------------------------------------------
  alpha Z        PSCENC =       302.45619847
  Ewald energy   TEWEN  =     -5214.09126118
  -Hartree energ DENC   =     -1808.89800957
  -exchange      EXHF   =         0.00000000
  -V(xc)+E(xc)   XCENC  =       276.21429330
  PAW double counting   =      6351.95671599    -6315.61852769
  entropy T*S    EENTRO =        -0.00514474
  eigenvalues    EBANDS =      -596.66167410
  atomic energy  EATOM  =      6972.52437674
  Solvation  Ediel_sol  =         0.00000000
  ---------------------------------------------------
  free energy    TOTEN  =       -32.12303279 eV

  energy without entropy =      -32.11788805  energy(sigma->0) =      -32.12046042


--------------------------------------------------------------------------------------------------------




--------------------------------------- Iteration      1(   9)  ---------------------------------------


    POTLOK:  cpu time      0.0466: real time      0.0467
    SETDIJ:  cpu time      0.5811: real time      0.5811
     EDDAV:  cpu time      1.6726: real time      1.6727
       DOS:  cpu time      0.0004: real time      0.0004
    CHARGE:  cpu time      0.1966: real time      0.1966
    MIXING:  cpu time      0.0017: real time      0.0017
    --------------------------------------------
      LOOP:  cpu time      2.4989: real time      2.4991

 eigenvalue-minimisations  :  3756
 total energy-change (2. order) : 0.3019676E-01  (-0.1877745E-01)
 number of electron      56.0000002 magnetization       0.0095654
 augmentation part       17.6164777 magnetization       0.0194135

 Broyden mixing:
  rms(total) = 0.96749E-01    rms(broyden)= 0.96685E-01
  rms(prec ) = 0.17883E+00
  weight for this iteration     100.00

 eigenvalues of (default mixing * dielectric matrix)
  average eigenvalue GAMMA=   1.1103
  2.2931  0.8952  0.5849  0.6679

 Free energy of the ion-electron system (eV)
  ---------------------------------------------------
  alpha Z        PSCENC =       302.45619847
  Ewald energy   TEWEN  =     -5214.09126118
  -Hartree energ DENC   =     -1801.87447199
  -exchange      EXHF   =         0.00000000
  -V(xc)+E(xc)   XCENC  =       276.11527167
  PAW double counting   =      6545.77211633    -6511.83783401
  entropy T*S    EENTRO =        -0.00749741
  eigenvalues    EBANDS =      -601.14973464
  atomic energy  EATOM  =      6972.52437674
  Solvation  Ediel_sol  =         0.00000000
  ---------------------------------------------------
  free energy    TOTEN  =       -32.09283603 eV

  energy without entropy =      -32.08533862  energy(sigma->0) =      -32.08908732


--------------------------------------------------------------------------------------------------------




--------------------------------------- Iteration      1(  10)  ---------------------------------------


    POTLOK:  cpu time      0.0493: real time      0.0494
    SETDIJ:  cpu time      0.5914: real time      0.5915
     EDDAV:  cpu time      1.7086: real time      1.7088
       DOS:  cpu time      0.0004: real time      0.0004
    CHARGE:  cpu time      0.1764: real time      0.1764
    MIXING:  cpu time      0.0018: real time      0.0018
    --------------------------------------------
      LOOP:  cpu time      2.5279: real time      2.5283

 eigenvalue-minimisations  :  3676
 total energy-change (2. order) : 0.5804183E-02  (-0.2285039E-02)
 number of electron      56.0000002 magnetization       0.0018632
 augmentation part       17.5844257 magnetization       0.0020496

 Broyden mixing:
  rms(total) = 0.32520E-01    rms(broyden)= 0.32508E-01
  rms(prec ) = 0.47595E-01
  weight for this iteration     100.00

 eigenvalues of (default mixing * dielectric matrix)
  average eigenvalue GAMMA=   1.1005
  2.4758  0.9209  0.9209  0.5693  0.6155

 Free energy of the ion-electron system (eV)
  ---------------------------------------------------
  alpha Z        PSCENC =       302.45619847
  Ewald energy   TEWEN  =     -5214.09126118
  -Hartree energ DENC   =     -1802.73892546
  -exchange      EXHF   =         0.00000000
  -V(xc)+E(xc)   XCENC  =       276.12290778
  PAW double counting   =      6589.53828991    -6555.70040932
  entropy T*S    EENTRO =        -0.00660598
  eigenvalues    EBANDS =      -600.19160279
  atomic energy  EATOM  =      6972.52437674
  Solvation  Ediel_sol  =         0.00000000
  ---------------------------------------------------
  free energy    TOTEN  =       -32.08703184 eV

  energy without entropy =      -32.08042586  energy(sigma->0) =      -32.08372885


--------------------------------------------------------------------------------------------------------




--------------------------------------- Iteration      1(  11)  ---------------------------------------


    POTLOK:  cpu time      0.0471: real time      0.0472
    SETDIJ:  cpu time      0.5843: real time      0.5843
     EDDAV:  cpu time      1.6536: real time      1.6537
       DOS:  cpu time      0.0004: real time      0.0004
    CHARGE:  cpu time      0.1716: real time      0.1716
    MIXING:  cpu time      0.0017: real time      0.0017
    --------------------------------------------
      LOOP:  cpu time      2.4587: real time      2.4589

 eigenvalue-minimisations  :  3676
 total energy-change (2. order) :-0.3172250E-03  (-0.2857074E-03)
 number of electron      56.0000002 magnetization      -0.0116355
 augmentation part       17.5801169 magnetization      -0.0091856

 Broyden mixing:
  rms(total) = 0.13120E-01    rms(broyden)= 0.13114E-01
  rms(prec ) = 0.19182E-01
  weight for this iteration     100.00

 eigenvalues of (default mixing * dielectric matrix)
  average eigenvalue GAMMA=   1.1271
  2.4520  1.2918  1.0450  0.5666  0.7452  0.6622

 Free energy of the ion-electron system (eV)
  ---------------------------------------------------
  alpha Z        PSCENC =       302.45619847
  Ewald energy   TEWEN  =     -5214.09126118
  -Hartree energ DENC   =     -1803.06104884
  -exchange      EXHF   =         0.00000000
  -V(xc)+E(xc)   XCENC  =       276.12683605
  PAW double counting   =      6597.61368022    -6563.73098984
  entropy T*S    EENTRO =        -0.00650176
  eigenvalues    EBANDS =      -599.91863892
  atomic energy  EATOM  =      6972.52437674
  Solvation  Ediel_sol  =         0.00000000
  ---------------------------------------------------
  free energy    TOTEN  =       -32.08734907 eV

  energy without entropy =      -32.08084731  energy(sigma->0) =      -32.08409819


--------------------------------------------------------------------------------------------------------




--------------------------------------- Iteration      1(  12)  ---------------------------------------


    POTLOK:  cpu time      0.0473: real time      0.0475
    SETDIJ:  cpu time      0.5846: real time      0.5846
     EDDAV:  cpu time      1.6608: real time      1.6614
       DOS:  cpu time      0.0004: real time      0.0004
    CHARGE:  cpu time      0.1697: real time      0.1697
    MIXING:  cpu time      0.0017: real time      0.0017
    --------------------------------------------
      LOOP:  cpu time      2.4645: real time      2.4653

 eigenvalue-minimisations  :  3696
 total energy-change (2. order) :-0.2311583E-04  (-0.2772932E-04)
 number of electron      56.0000002 magnetization      -0.0062114
 augmentation part       17.5793915 magnetization      -0.0023228

 Broyden mixing:
  rms(total) = 0.49775E-02    rms(broyden)= 0.49744E-02
  rms(prec ) = 0.72163E-02
  weight for this iteration     100.00

 eigenvalues of (default mixing * dielectric matrix)
  average eigenvalue GAMMA=   1.1315
  2.4738  1.7018  0.8916  0.8916  0.7456  0.5683  0.6475

 Free energy of the ion-electron system (eV)
  ---------------------------------------------------
  alpha Z        PSCENC =       302.45619847
  Ewald energy   TEWEN  =     -5214.09126118
  -Hartree energ DENC   =     -1803.52845476
  -exchange      EXHF   =         0.00000000
  -V(xc)+E(xc)   XCENC  =       276.14499708
  PAW double counting   =      6600.53040348    -6566.54549320
  entropy T*S    EENTRO =        -0.00645588
  eigenvalues    EBANDS =      -599.57168292
  atomic energy  EATOM  =      6972.52437674
  Solvation  Ediel_sol  =         0.00000000
  ---------------------------------------------------
  free energy    TOTEN  =       -32.08737218 eV

  energy without entropy =      -32.08091631  energy(sigma->0) =      -32.08414425


--------------------------------------------------------------------------------------------------------




--------------------------------------- Iteration      1(  13)  ---------------------------------------


    POTLOK:  cpu time      0.0469: real time      0.0470
    SETDIJ:  cpu time      0.5796: real time      0.5796
     EDDAV:  cpu time      1.7723: real time      1.7725
       DOS:  cpu time      0.0004: real time      0.0004
    CHARGE:  cpu time      0.2242: real time      0.2242
    MIXING:  cpu time      0.0017: real time      0.0017
    --------------------------------------------
      LOOP:  cpu time      2.6251: real time      2.6254

 eigenvalue-minimisations  :  3676
 total energy-change (2. order) :-0.2816994E-04  (-0.6103006E-05)
 number of electron      56.0000002 magnetization      -0.0024141
 augmentation part       17.5785653 magnetization      -0.0005097

 Broyden mixing:
  rms(total) = 0.24613E-02    rms(broyden)= 0.24607E-02
  rms(prec ) = 0.37926E-02
  weight for this iteration     100.00

 eigenvalues of (default mixing * dielectric matrix)
  average eigenvalue GAMMA=   1.1968
  2.6071  2.1013  1.0877  1.0877  0.7936  0.5628  0.6671  0.6671

 Free energy of the ion-electron system (eV)
  ---------------------------------------------------
  alpha Z        PSCENC =       302.45619847
  Ewald energy   TEWEN  =     -5214.09126118
  -Hartree energ DENC   =     -1803.76976554
  -exchange      EXHF   =         0.00000000
  -V(xc)+E(xc)   XCENC  =       276.15534662
  PAW double counting   =      6601.82318974    -6567.79285924
  entropy T*S    EENTRO =        -0.00644031
  eigenvalues    EBANDS =      -599.38618565
  atomic energy  EATOM  =      6972.52437674
  Solvation  Ediel_sol  =         0.00000000
  ---------------------------------------------------
  free energy    TOTEN  =       -32.08740035 eV

  energy without entropy =      -32.08096005  energy(sigma->0) =      -32.08418020


--------------------------------------------------------------------------------------------------------




--------------------------------------- Iteration      1(  14)  ---------------------------------------


    POTLOK:  cpu time      0.0465: real time      0.0466
    SETDIJ:  cpu time      0.5777: real time      0.5777
     EDDAV:  cpu time      1.6883: real time      1.6887
       DOS:  cpu time      0.0004: real time      0.0004
    CHARGE:  cpu time      0.1727: real time      0.1727
    MIXING:  cpu time      0.0019: real time      0.0019
    --------------------------------------------
      LOOP:  cpu time      2.4874: real time      2.4879

 eigenvalue-minimisations  :  3680
 total energy-change (2. order) :-0.1817358E-05  (-0.1088739E-05)
 number of electron      56.0000002 magnetization      -0.0020952
 augmentation part       17.5787187 magnetization      -0.0008447

 Broyden mixing:
  rms(total) = 0.81706E-03    rms(broyden)= 0.81675E-03
  rms(prec ) = 0.13506E-02
  weight for this iteration     100.00

 eigenvalues of (default mixing * dielectric matrix)
  average eigenvalue GAMMA=   1.1737
  2.6509  2.1796  1.1152  1.1152  0.8281  0.7389  0.7389  0.5654  0.6316

 Free energy of the ion-electron system (eV)
  ---------------------------------------------------
  alpha Z        PSCENC =       302.45619847
  Ewald energy   TEWEN  =     -5214.09126118
  -Hartree energ DENC   =     -1803.83582407
  -exchange      EXHF   =         0.00000000
  -V(xc)+E(xc)   XCENC  =       276.15887006
  PAW double counting   =      6602.08303093    -6568.03618694
  entropy T*S    EENTRO =        -0.00644122
  eigenvalues    EBANDS =      -599.34016496
  atomic energy  EATOM  =      6972.52437674
  Solvation  Ediel_sol  =         0.00000000
  ---------------------------------------------------
  free energy    TOTEN  =       -32.08740217 eV

  energy without entropy =      -32.08096095  energy(sigma->0) =      -32.08418156


--------------------------------------------------------------------------------------------------------




--------------------------------------- Iteration      1(  15)  ---------------------------------------


    POTLOK:  cpu time      0.0465: real time      0.0466
    SETDIJ:  cpu time      0.5793: real time      0.5793
     EDDAV:  cpu time      1.3000: real time      1.3003
       DOS:  cpu time      0.0004: real time      0.0004
    --------------------------------------------
      LOOP:  cpu time      1.9261: real time      1.9265

 eigenvalue-minimisations  :  2520
 total energy-change (2. order) : 0.6883506E-06  (-0.2642568E-06)
 number of electron      56.0000002 magnetization      -0.0020952
 augmentation part       17.5787187 magnetization      -0.0008447

 Free energy of the ion-electron system (eV)
  ---------------------------------------------------
  alpha Z        PSCENC =       302.45619847
  Ewald energy   TEWEN  =     -5214.09126118
  -Hartree energ DENC   =     -1803.83426785
  -exchange      EXHF   =         0.00000000
  -V(xc)+E(xc)   XCENC  =       276.15907899
  PAW double counting   =      6601.88523761    -6567.83327433
  entropy T*S    EENTRO =        -0.00644422
  eigenvalues    EBANDS =      -599.34704570
  atomic energy  EATOM  =      6972.52437674
  Solvation  Ediel_sol  =         0.00000000
  ---------------------------------------------------
  free energy    TOTEN  =       -32.08740148 eV

  energy without entropy =      -32.08095726  energy(sigma->0) =      -32.08417937


--------------------------------------------------------------------------------------------------------




 average (electrostatic) potential at core
  the test charge radii are     1.0504  0.7215
  (the norm of the test charge is              1.0000)
       1 -80.5687       2 -80.5687       3 -70.0348       4 -70.0348       5 -70.0348
       6 -70.0348
 
 
 
 E-fermi :   5.4850     XC(G=0): -11.8267     alpha+bet :-12.2345

 val. band max:        5.4320707147   @ k =   0.0000   0.0000   0.5000
 cond. band min:       5.5019693161   @ k =   0.5000   0.2500   0.5000
 fundamental gap:      0.0698986014
 Fermi energy:         5.4850458412

 spin component 1

 k-point     1 :       0.0000    0.0000    0.0000
  band No.  band energies     occupation 
      1     -46.4720      1.00000
      2     -46.4643      1.00000
      3     -46.3408      1.00000
      4     -46.3408      1.00000
      5     -46.2198      1.00000
      6     -46.2198      1.00000
      7     -13.9676      1.00000
      8     -12.8263      1.00000
      9     -12.0394      1.00000
     10     -12.0394      1.00000
     11      -2.7761      1.00000
     12      -2.5563      1.00000
     13      -1.4475      1.00000
     14      -1.4475      1.00000
     15      -1.0159      1.00000
     16       1.6989      1.00000
     17       1.9776      1.00000
     18       1.9776      1.00000
     19       2.1281      1.00000
     20       2.2095      1.00000
     21       2.2095      1.00000
     22       2.3703      1.00000
     23       2.9089      1.00000
     24       3.3006      1.00000
     25       4.1087      1.00000
     26       4.1087      1.00000
     27       4.6859      1.00000
     28       4.7504      1.00000
     29       5.7096      0.00000
     30       8.1379      0.00000
     31       8.1379      0.00000
     32       9.1435      0.00000
     33      11.6833      0.00000
     34      15.5168      0.00000
     35      15.5168      0.00000
     36      18.3620      0.00000

 k-point     2 :       0.2500    0.0000    0.0000
  band No.  band energies     occupation 
      1     -46.4709      1.00000
      2     -46.4655      1.00000
      3     -46.3404      1.00000
      4     -46.3404      1.00000
      5     -46.2204      1.00000
      6     -46.2204      1.00000
      7     -13.7631      1.00000
      8     -12.8628      1.00000
      9     -12.2296      1.00000
     10     -12.1267      1.00000
     11      -2.3858      1.00000
     12      -2.1091      1.00000
     13      -1.4088      1.00000
     14      -1.3942      1.00000
     15      -0.6465      1.00000
     16       0.8318      1.00000
     17       0.8619      1.00000
     18       1.1991      1.00000
     19       1.6589      1.00000
     20       1.7642      1.00000
     21       3.0021      1.00000
     22       3.0705      1.00000
     23       3.3708      1.00000
     24       3.6886      1.00000
     25       3.7363      1.00000
     26       4.0426      1.00000
     27       4.5789      1.00000
     28       5.4203      0.96641
     29       5.9894      0.00000
     30       7.9272      0.00000
     31       7.9832      0.00000
     32       8.7750      0.00000
     33      12.5358      0.00000
     34      15.3559      0.00000
     35      15.8815      0.00000
     36      18.0421      0.00000

 k-point     3 :       0.5000    0.0000    0.0000
  band No.  band energies     occupation 
      1     -46.4681      1.00000
      2     -46.4681      1.00000
      3     -46.3399      1.00000
      4     -46.3399      1.00000
      5     -46.2209      1.00000
      6     -46.2209      1.00000
      7     -13.2549      1.00000
      8     -13.2549      1.00000
      9     -12.2896      1.00000
     10     -12.2896      1.00000
     11      -1.6285      1.00000
     12      -1.6285      1.00000
     13      -1.3523      1.00000
     14      -1.3523      1.00000
     15      -0.0656      1.00000
     16      -0.0656      1.00000
     17       0.4361      1.00000
     18       0.4361      1.00000
     19       1.1164      1.00000
     20       1.1164      1.00000
     21       3.4660      1.00000
     22       3.4660      1.00000
     23       3.7796      1.00000
     24       3.7796      1.00000
     25       3.8319      1.00000
     26       3.8319      1.00000
     27       4.8265      1.00000
     28       4.8265      1.00000
     29       7.6374      0.00000
     30       7.6374      0.00000
     31       7.7617      0.00000
     32       7.7617      0.00000
     33      14.2192      0.00000
     34      14.2192      0.00000
     35      16.9660      0.00000
     36      16.9660      0.00000

 k-point     4 :       0.2500    0.2500    0.0000
  band No.  band energies     occupation 
      1     -46.4701      1.00000
      2     -46.4662      1.00000
      3     -46.3411      1.00000
      4     -46.3399      1.00000
      5     -46.2209      1.00000
      6     -46.2198      1.00000
      7     -13.6241      1.00000
      8     -12.9555      1.00000
      9     -12.3165      1.00000
     10     -12.1110      1.00000
     11      -2.6749      1.00000
     12      -1.5776      1.00000
     13      -1.4793      1.00000
     14      -1.3518      1.00000
     15      -0.3256      1.00000
     16      -0.0523      1.00000
     17       1.0710      1.00000
     18       1.3150      1.00000
     19       2.2185      1.00000
     20       2.2881      1.00000
     21       2.4741      1.00000
     22       2.5527      1.00000
     23       2.8996      1.00000
     24       3.5483      1.00000
     25       3.8688      1.00000
     26       4.0674      1.00000
     27       4.8849      1.00000
     28       5.5161      0.18971
     29       6.1257      0.00000
     30       7.7571      0.00000
     31       8.1257      0.00000
     32       8.3413      0.00000
     33      13.2958      0.00000
     34      15.6832      0.00000
     35      15.8106      0.00000
     36      17.7679      0.00000

 k-point     5 :       0.5000    0.2500    0.0000
  band No.  band energies     occupation 
      1     -46.4681      1.00000
      2     -46.4681      1.00000
      3     -46.3406      1.00000
      4     -46.3406      1.00000
      5     -46.2203      1.00000
      6     -46.2203      1.00000
      7     -13.2825      1.00000
      8     -13.2825      1.00000
      9     -12.2339      1.00000
     10     -12.2339      1.00000
     11      -2.2594      1.00000
     12      -2.2594      1.00000
     13      -1.4365      1.00000
     14      -1.4365      1.00000
     15       0.4804      1.00000
     16       0.4804      1.00000
     17       1.0975      1.00000
     18       1.0975      1.00000
     19       1.4890      1.00000
     20       1.4890      1.00000
     21       2.9417      1.00000
     22       2.9417      1.00000
     23       3.3332      1.00000
     24       3.3332      1.00000
     25       3.5001      1.00000
     26       3.5001      1.00000
     27       5.3147      1.00000
     28       5.3147      1.00000
     29       7.2231      0.00000
     30       7.2231      0.00000
     31       7.9463      0.00000
     32       7.9463      0.00000
     33      14.7602      0.00000
     34      14.7602      0.00000
     35      16.7981      0.00000
     36      16.7981      0.00000

 k-point     6 :       0.5000    0.5000    0.0000
  band No.  band energies     occupation 
      1     -46.4681      1.00000
      2     -46.4681      1.00000
      3     -46.3413      1.00000
      4     -46.3413      1.00000
      5     -46.2197      1.00000
      6     -46.2197      1.00000
      7     -13.3078      1.00000
      8     -13.3078      1.00000
      9     -12.1802      1.00000
     10     -12.1802      1.00000
     11      -2.6626      1.00000
     12      -2.6626      1.00000
     13      -1.5110      1.00000
     14      -1.5110      1.00000
     15       0.9793      1.00000
     16       0.9793      1.00000
     17       1.7946      1.00000
     18       1.7946      1.00000
     19       2.2282      1.00000
     20       2.2282      1.00000
     21       2.2765      1.00000
     22       2.2765      1.00000
     23       2.5277      1.00000
     24       2.5277      1.00000
     25       3.3531      1.00000
     26       3.3531      1.00000
     27       5.5797      0.00371
     28       5.5797      0.00371
     29       6.7838      0.00000
     30       6.7838      0.00000
     31       8.1137      0.00000
     32       8.1137      0.00000
     33      15.7162      0.00000
     34      15.7162      0.00000
     35      16.1248      0.00000
     36      16.1248      0.00000

 k-point     7 :       0.0000    0.0000    0.1667
  band No.  band energies     occupation 
      1     -46.4869      1.00000
      2     -46.4803      1.00000
      3     -46.3395      1.00000
      4     -46.3395      1.00000
      5     -46.2179      1.00000
      6     -46.2179      1.00000
      7     -13.7593      1.00000
      8     -12.7413      1.00000
      9     -12.1407      1.00000
     10     -12.1407      1.00000
     11      -2.5443      1.00000
     12      -2.2265      1.00000
     13      -1.2523      1.00000
     14      -1.2523      1.00000
     15      -0.7655      1.00000
     16       0.8180      1.00000
     17       1.5236      1.00000
     18       1.6030      1.00000
     19       1.6030      1.00000
     20       2.3264      1.00000
     21       2.3382      1.00000
     22       2.3382      1.00000
     23       2.8105      1.00000
     24       3.3490      1.00000
     25       4.5325      1.00000
     26       4.5483      1.00000
     27       4.5483      1.00000
     28       5.3808      0.99841
     29       5.5489      0.03536
     30       7.5759      0.00000
     31       7.5759      0.00000
     32       8.6380      0.00000
     33      12.5141      0.00000
     34      16.3929      0.00000
     35      16.3929      0.00000
     36      18.3857      0.00000

 k-point     8 :       0.2500    0.0000    0.1667
  band No.  band energies     occupation 
      1     -46.4860      1.00000
      2     -46.4814      1.00000
      3     -46.3392      1.00000
      4     -46.3392      1.00000
      5     -46.2183      1.00000
      6     -46.2183      1.00000
      7     -13.5711      1.00000
      8     -12.7489      1.00000
      9     -12.3266      1.00000
     10     -12.2186      1.00000
     11      -2.1737      1.00000
     12      -1.8777      1.00000
     13      -1.2349      1.00000
     14      -1.2009      1.00000
     15      -0.3748      1.00000
     16       0.4130      1.00000
     17       0.6308      1.00000
     18       1.1353      1.00000
     19       1.3837      1.00000
     20       1.7858      1.00000
     21       2.2520      1.00000
     22       2.7081      1.00000
     23       3.5959      1.00000
     24       3.8731      1.00000
     25       4.2195      1.00000
     26       4.3129      1.00000
     27       4.5635      1.00000
     28       5.2863      1.00000
     29       6.2808      0.00000
     30       7.1273      0.00000
     31       7.4868      0.00000
     32       8.6453      0.00000
     33      13.2467      0.00000
     34      16.0758      0.00000
     35      16.6944      0.00000
     36      18.2769      0.00000

 k-point     9 :       0.5000    0.0000    0.1667
  band No.  band energies     occupation 
      1     -46.4837      1.00000
      2     -46.4837      1.00000
      3     -46.3388      1.00000
      4     -46.3388      1.00000
      5     -46.2187      1.00000
      6     -46.2187      1.00000
      7     -13.1004      1.00000
      8     -13.1004      1.00000
      9     -12.3726      1.00000
     10     -12.3726      1.00000
     11      -1.4253      1.00000
     12      -1.4253      1.00000
     13      -1.2604      1.00000
     14      -1.2604      1.00000
     15      -0.0594      1.00000
     16      -0.0594      1.00000
     17       0.5307      1.00000
     18       0.5307      1.00000
     19       0.8916      1.00000
     20       0.8916      1.00000
     21       2.7934      1.00000
     22       2.7934      1.00000
     23       4.0522      1.00000
     24       4.0522      1.00000
     25       4.2493      1.00000
     26       4.2493      1.00000
     27       4.7452      1.00000
     28       4.7452      1.00000
     29       6.8001      0.00000
     30       6.8001      0.00000
     31       8.0131      0.00000
     32       8.0131      0.00000
     33      14.8130      0.00000
     34      14.8130      0.00000
     35      17.5946      0.00000
     36      17.5946      0.00000

 k-point    10 :       0.2500    0.2500    0.1667
  band No.  band energies     occupation 
      1     -46.4853      1.00000
      2     -46.4820      1.00000
      3     -46.3398      1.00000
      4     -46.3388      1.00000
      5     -46.2187      1.00000
      6     -46.2179      1.00000
      7     -13.4432      1.00000
      8     -12.8243      1.00000
      9     -12.4070      1.00000
     10     -12.2070      1.00000
     11      -2.4005      1.00000
     12      -1.4232      1.00000
     13      -1.3836      1.00000
     14      -1.2043      1.00000
     15      -0.0485      1.00000
     16       0.1506      1.00000
     17       0.3853      1.00000
     18       1.3230      1.00000
     19       1.4124      1.00000
     20       1.9235      1.00000
     21       2.3102      1.00000
     22       2.7647      1.00000
     23       3.1329      1.00000
     24       3.7644      1.00000
     25       4.0917      1.00000
     26       4.1493      1.00000
     27       4.9467      1.00000
     28       5.3256      1.00000
     29       6.4591      0.00000
     30       6.9518      0.00000
     31       7.6161      0.00000
     32       8.4103      0.00000
     33      13.8829      0.00000
     34      16.3832      0.00000
     35      16.4162      0.00000
     36      18.1377      0.00000

 k-point    11 :       0.5000    0.2500    0.1667
  band No.  band energies     occupation 
      1     -46.4837      1.00000
      2     -46.4837      1.00000
      3     -46.3394      1.00000
      4     -46.3394      1.00000
      5     -46.2183      1.00000
      6     -46.2183      1.00000
      7     -13.1289      1.00000
      8     -13.1289      1.00000
      9     -12.3206      1.00000
     10     -12.3206      1.00000
     11      -2.0191      1.00000
     12      -2.0191      1.00000
     13      -1.3346      1.00000
     14      -1.3346      1.00000
     15       0.4046      1.00000
     16       0.4046      1.00000
     17       0.9731      1.00000
     18       0.9731      1.00000
     19       1.3505      1.00000
     20       1.3505      1.00000
     21       2.4513      1.00000
     22       2.4513      1.00000
     23       3.6305      1.00000
     24       3.6305      1.00000
     25       3.8402      1.00000
     26       3.8402      1.00000
     27       5.1745      1.00000
     28       5.1745      1.00000
     29       7.0029      0.00000
     30       7.0029      0.00000
     31       7.7682      0.00000
     32       7.7682      0.00000
     33      15.2364      0.00000
     34      15.2364      0.00000
     35      17.3213      0.00000
     36      17.3213      0.00000

 k-point    12 :       0.5000    0.5000    0.1667
  band No.  band energies     occupation 
      1     -46.4836      1.00000
      2     -46.4836      1.00000
      3     -46.3400      1.00000
      4     -46.3400      1.00000
      5     -46.2178      1.00000
      6     -46.2178      1.00000
      7     -13.1542      1.00000
      8     -13.1542      1.00000
      9     -12.2711      1.00000
     10     -12.2711      1.00000
     11      -2.3843      1.00000
     12      -2.3843      1.00000
     13      -1.4422      1.00000
     14      -1.4422      1.00000
     15       1.1213      1.00000
     16       1.1213      1.00000
     17       1.2365      1.00000
     18       1.2365      1.00000
     19       1.4572      1.00000
     20       1.4572      1.00000
     21       2.4940      1.00000
     22       2.4940      1.00000
     23       2.8785      1.00000
     24       2.8785      1.00000
     25       3.7507      1.00000
     26       3.7507      1.00000
     27       5.3732      0.99922
     28       5.3732      0.99922
     29       7.0417      0.00000
     30       7.0417      0.00000
     31       7.6310      0.00000
     32       7.6310      0.00000
     33      16.0815      0.00000
     34      16.0815      0.00000
     35      16.4773      0.00000
     36      16.4773      0.00000

 k-point    13 :       0.0000    0.0000    0.3333
  band No.  band energies     occupation 
      1     -46.5163      1.00000
      2     -46.5126      1.00000
      3     -46.3371      1.00000
      4     -46.3371      1.00000
      5     -46.2139      1.00000
      6     -46.2139      1.00000
      7     -13.2596      1.00000
      8     -12.6336      1.00000
      9     -12.3362      1.00000
     10     -12.3362      1.00000
     11      -2.0299      1.00000
     12      -1.5589      1.00000
     13      -0.7645      1.00000
     14      -0.7645      1.00000
     15      -0.1861      1.00000
     16      -0.0573      1.00000
     17       0.5803      1.00000
     18       0.9283      1.00000
     19       0.9283      1.00000
     20       1.9097      1.00000
     21       2.5308      1.00000
[...]
      2     -46.5309      1.00000
      3     -46.3362      1.00000
      4     -46.3362      1.00000
      5     -46.2128      1.00000
      6     -46.2128      1.00000
      7     -12.7544      1.00000
      8     -12.7544      1.00000
      9     -12.4588      1.00000
     10     -12.4588      1.00000
     11      -1.6768      1.00000
     12      -1.6768      1.00000
     13      -1.1350      1.00000
     14      -1.1350      1.00000
     15       0.6654      1.00000
     16       0.6654      1.00000
     17       1.0656      1.00000
     18       1.0656      1.00000
     19       1.7537      1.00000
     20       1.7537      1.00000
     21       2.2116      1.00000
     22       2.2116      1.00000
     23       2.5851      1.00000
     24       2.5851      1.00000
     25       3.7039      1.00000
     26       3.7039      1.00000
     27       4.8751      1.00000
     28       4.8751      1.00000
     29       5.6342      0.00001
     30       5.6342      0.00001
     31       8.6153      0.00000
     32       8.6153      0.00000
     33      16.5905      0.00000
     34      16.5905      0.00000
     35      17.8829      0.00000
     36      17.8829      0.00000

 k-point    22 :       0.2500    0.2500    0.5000
  band No.  band energies     occupation 
      1     -46.5309      1.00000
      2     -46.5306      1.00000
      3     -46.3366      1.00000
      4     -46.3362      1.00000
      5     -46.2128      1.00000
      6     -46.2128      1.00000
      7     -12.7642      1.00000
      8     -12.7268      1.00000
      9     -12.4830      1.00000
     10     -12.4486      1.00000
     11      -1.6793      1.00000
     12      -1.3633      1.00000
     13      -1.1138      1.00000
     14      -0.8678      1.00000
     15      -0.5098      1.00000
     16       0.5548      1.00000
     17       1.0721      1.00000
     18       1.2130      1.00000
     19       1.3128      1.00000
     20       1.7287      1.00000
     21       1.9397      1.00000
     22       2.5816      1.00000
     23       2.5960      1.00000
     24       2.8648      1.00000
     25       3.8786      1.00000
     26       4.5943      1.00000
     27       4.7974      1.00000
     28       5.0556      1.00000
     29       5.6601      0.00000
     30       6.4727      0.00000
     31       7.2032      0.00000
     32       8.5077      0.00000
     33      16.3890      0.00000
     34      16.6035      0.00000
     35      18.0076      0.00000
     36      18.7067      0.00000

 k-point    23 :       0.5000    0.2500    0.5000
  band No.  band energies     occupation 
      1     -46.5307      1.00000
      2     -46.5307      1.00000
      3     -46.3365      1.00000
      4     -46.3365      1.00000
      5     -46.2129      1.00000
      6     -46.2129      1.00000
      7     -12.7170      1.00000
      8     -12.7170      1.00000
      9     -12.4889      1.00000
     10     -12.4889      1.00000
     11      -1.4801      1.00000
     12      -1.4801      1.00000
     13      -1.1642      1.00000
     14      -1.1642      1.00000
     15       0.0699      1.00000
     16       0.0699      1.00000
     17       0.7989      1.00000
     18       0.7989      1.00000
     19       1.6449      1.00000
     20       1.6449      1.00000
     21       2.5988      1.00000
     22       2.5988      1.00000
     23       2.8817      1.00000
     24       2.8817      1.00000
     25       3.9808      1.00000
     26       3.9808      1.00000
     27       5.3596      0.99981
     28       5.3596      0.99981
     29       5.5020      0.31609
     30       5.5020      0.31609
     31       8.1577      0.00000
     32       8.1577      0.00000
     33      16.6193      0.00000
     34      16.6193      0.00000
     35      17.5201      0.00000
     36      17.5201      0.00000

 k-point    24 :       0.5000    0.5000    0.5000
  band No.  band energies     occupation 
      1     -46.5305      1.00000
      2     -46.5305      1.00000
      3     -46.3367      1.00000
      4     -46.3367      1.00000
      5     -46.2129      1.00000
      6     -46.2129      1.00000
      7     -12.6648      1.00000
      8     -12.6648      1.00000
      9     -12.5338      1.00000
     10     -12.5338      1.00000
     11      -1.2150      1.00000
     12      -1.2150      1.00000
     13      -1.0665      1.00000
     14      -1.0665      1.00000
     15      -0.5897      1.00000
     16      -0.5897      1.00000
     17       0.5684      1.00000
     18       0.5684      1.00000
     19       1.6552      1.00000
     20       1.6552      1.00000
     21       2.6098      1.00000
     22       2.6098      1.00000
     23       3.2670      1.00000
     24       3.2670      1.00000
     25       4.6463      1.00000
     26       4.6463      1.00000
     27       4.7438      1.00000
     28       4.7438      1.00000
     29       6.4682      0.00000
     30       6.4682      0.00000
     31       7.3182      0.00000
     32       7.3182      0.00000
     33      16.4205      0.00000
     34      16.4205      0.00000
     35      17.4670      0.00000
     36      17.4670      0.00000


--------------------------------------------------------------------------------------------------------


 soft charge-density along one line, spin component            1
         0         1         2         3         4         5         6         7         8         9
 total charge-density along one line
 
 soft charge-density along one line, spin component            2
         0         1         2         3         4         5         6         7         8         9
 total charge-density along one line
 
 pseudopotential strength for first ion, spin component:            1
-40.523  -0.000   0.027  10.135   0.000  -0.016   0.000   0.000
 -0.000 -40.635  -0.000   0.000  10.196   0.000   0.000   0.000
  0.027  -0.000 -40.523  -0.016   0.000  10.135   0.000   0.000
 10.135   0.000  -0.016   7.358  -0.000   0.004  -0.000  -0.000
  0.000  10.196   0.000  -0.000   7.345  -0.000  -0.000  -0.000
 -0.016   0.000  10.135   0.004  -0.000   7.358  -0.000  -0.000
  0.000   0.000   0.000  -0.000  -0.000  -0.000  -5.095  -0.000
  0.000   0.000   0.000  -0.000  -0.000  -0.000  -0.000  -5.125
 -0.000   0.000  -0.000   0.000  -0.000   0.000  -0.078   0.000
  0.000   0.000   0.000  -0.000  -0.000  -0.000  -0.000  -0.051
 -0.000  -0.000   0.000   0.000   0.000  -0.000  -0.000   0.000
  0.000   0.000   0.000  -0.000  -0.000  -0.000  -5.060  -0.000
  0.000   0.000   0.000  -0.000  -0.000  -0.000  -0.000  -5.094
 -0.000   0.000  -0.000   0.000  -0.000   0.000  -0.087   0.000
  0.000   0.000   0.000  -0.000  -0.000  -0.000  -0.000  -0.057
 -0.000  -0.000   0.000   0.000   0.000  -0.000  -0.000   0.000
 -0.000  -0.000  -0.000  -0.000  -0.000  -0.000  -0.011   0.000
 -0.000  -0.000  -0.000  -0.000  -0.000  -0.000  -0.022   0.000
 pseudopotential strength for first ion, spin component:            2
-40.524  -0.000   0.027  10.135   0.000  -0.016   0.000   0.000
 -0.000 -40.635  -0.000   0.000  10.196   0.000   0.000   0.000
  0.027  -0.000 -40.524  -0.016   0.000  10.135   0.000   0.000
 10.135   0.000  -0.016   7.358  -0.000   0.004  -0.000  -0.000
  0.000  10.196   0.000  -0.000   7.345  -0.000  -0.000  -0.000
 -0.016   0.000  10.135   0.004  -0.000   7.358  -0.000  -0.000
  0.000   0.000   0.000  -0.000  -0.000  -0.000  -5.095  -0.000
  0.000   0.000   0.000  -0.000  -0.000  -0.000  -0.000  -5.125
 -0.000   0.000  -0.000   0.000  -0.000   0.000  -0.078   0.000
  0.000   0.000   0.000  -0.000  -0.000  -0.000  -0.000  -0.051
 -0.000  -0.000   0.000   0.000   0.000  -0.000  -0.000   0.000
  0.000   0.000   0.000  -0.000  -0.000  -0.000  -5.061  -0.000
  0.000   0.000   0.000  -0.000  -0.000  -0.000  -0.000  -5.094
 -0.000   0.000  -0.000   0.000  -0.000   0.000  -0.087   0.000
  0.000   0.000   0.000  -0.000  -0.000  -0.000  -0.000  -0.057
 -0.000  -0.000   0.000   0.000   0.000  -0.000  -0.000   0.000
 -0.000  -0.000  -0.000  -0.000  -0.000   0.000  -0.011   0.000
 -0.000  -0.000  -0.000  -0.000  -0.000  -0.000  -0.022   0.000
 total augmentation occupancy for first ion, spin component:            1
  1.995   0.000   0.000  -0.036  -0.000   0.001   0.000   0.000   0.000   0.000   0.000   0.000   0.000   0.000   0.000   0.000
  0.000   1.995   0.000  -0.000  -0.036  -0.000   0.000   0.000   0.000   0.000   0.000   0.000   0.000   0.000   0.000   0.000
  0.000   0.000   1.995   0.001  -0.000  -0.036   0.000   0.000   0.000   0.000   0.000   0.000   0.000   0.000   0.000   0.000
 -0.036  -0.000   0.001   0.173   0.000  -0.019   0.000   0.000   0.000   0.000   0.000   0.000   0.000   0.000   0.000   0.000
 -0.000  -0.036  -0.000   0.000   0.204   0.000   0.000   0.000   0.000   0.000   0.000   0.000   0.000   0.000   0.000   0.000
  0.001  -0.000  -0.036  -0.019   0.000   0.173   0.000   0.000   0.000   0.000   0.000   0.000   0.000   0.000   0.000   0.000
  0.000   0.000   0.000   0.000   0.000   0.000   3.968   0.000   1.495   0.000   0.000  -1.954  -0.000  -1.205  -0.000  -0.000
  0.000   0.000   0.000   0.000   0.000   0.000   0.000   3.499   0.000   1.262  -0.000  -0.000  -1.641  -0.000  -0.981   0.000
  0.000   0.000   0.000   0.000   0.000   0.000   1.495   0.000   3.281   0.000   0.000  -1.176  -0.000  -1.437  -0.000  -0.000
  0.000   0.000   0.000   0.000   0.000   0.000   0.000   1.262   0.000   3.499   0.000  -0.000  -0.981  -0.000  -1.641  -0.000
  0.000   0.000   0.000   0.000   0.000   0.000   0.000  -0.000   0.000   0.000   2.105  -0.000   0.000  -0.000  -0.000  -0.599
  0.000   0.000   0.000   0.000   0.000   0.000  -1.954  -0.000  -1.176  -0.000  -0.000   1.474   0.000   0.585   0.000   0.000
  0.000   0.000   0.000   0.000   0.000   0.000  -0.000  -1.641  -0.000  -0.981   0.000   0.000   1.410   0.000   0.391  -0.000
  0.000   0.000   0.000   0.000   0.000   0.000  -1.205  -0.000  -1.437  -0.000  -0.000   0.585   0.000   1.354   0.000   0.000
  0.000   0.000   0.000   0.000   0.000   0.000  -0.000  -0.981  -0.000  -1.641  -0.000   0.000   0.391   0.000   1.410   0.000
  0.000   0.000   0.000   0.000   0.000   0.000  -0.000   0.000  -0.000  -0.000  -0.599   0.000  -0.000   0.000   0.000   1.059
  0.000   0.000   0.000   0.000   0.000   0.000  -0.215  -0.000   0.211  -0.000  -0.000   0.266   0.000  -0.296   0.000   0.000
  0.000   0.000   0.000   0.000   0.000   0.000   0.025   0.000  -0.009   0.000   0.000  -0.035  -0.000   0.036  -0.000  -0.000
 total augmentation occupancy for first ion, spin component:            2
 -0.000  -0.000   0.000  -0.000   0.000   0.000   0.000   0.000   0.000   0.000   0.000   0.000   0.000   0.000   0.000   0.000
 -0.000  -0.000  -0.000   0.000   0.000   0.000   0.000   0.000   0.000   0.000   0.000   0.000   0.000   0.000   0.000   0.000
  0.000  -0.000  -0.000   0.000   0.000  -0.000   0.000   0.000   0.000   0.000   0.000   0.000   0.000   0.000   0.000   0.000
 -0.000   0.000   0.000  -0.000  -0.000  -0.000   0.000   0.000   0.000   0.000   0.000   0.000   0.000   0.000   0.000   0.000
  0.000   0.000   0.000  -0.000  -0.000  -0.000   0.000   0.000   0.000   0.000   0.000   0.000   0.000   0.000   0.000   0.000
  0.000   0.000  -0.000  -0.000  -0.000  -0.000   0.000   0.000   0.000   0.000   0.000   0.000   0.000   0.000   0.000   0.000
  0.000   0.000   0.000   0.000   0.000   0.000   0.000   0.000  -0.000   0.000   0.000   0.000   0.000   0.000   0.000   0.000
  0.000   0.000   0.000   0.000   0.000   0.000   0.000   0.000   0.000   0.000  -0.000   0.000   0.000   0.000   0.000  -0.000
  0.000   0.000   0.000   0.000   0.000   0.000  -0.000   0.000   0.000   0.000  -0.000   0.000   0.000  -0.000   0.000   0.000
  0.000   0.000   0.000   0.000   0.000   0.000   0.000   0.000   0.000   0.000   0.000   0.000   0.000   0.000   0.000   0.000
  0.000   0.000   0.000   0.000   0.000   0.000   0.000  -0.000  -0.000   0.000   0.000   0.000  -0.000   0.000   0.000  -0.000
  0.000   0.000   0.000   0.000   0.000   0.000   0.000   0.000   0.000   0.000   0.000  -0.000  -0.000  -0.000  -0.000  -0.000
  0.000   0.000   0.000   0.000   0.000   0.000   0.000   0.000   0.000   0.000  -0.000  -0.000  -0.001  -0.000  -0.001   0.000
  0.000   0.000   0.000   0.000   0.000   0.000   0.000   0.000  -0.000   0.000   0.000  -0.000  -0.000  -0.000  -0.000  -0.000
  0.000   0.000   0.000   0.000   0.000   0.000   0.000   0.000   0.000   0.000   0.000  -0.000  -0.001  -0.000  -0.001  -0.000
  0.000   0.000   0.000   0.000   0.000   0.000   0.000  -0.000   0.000   0.000  -0.000  -0.000   0.000  -0.000  -0.000  -0.000
  0.000   0.000   0.000   0.000   0.000   0.000   0.000   0.000   0.000   0.000   0.000   0.000   0.000   0.000   0.000   0.000
  0.000   0.000   0.000   0.000   0.000   0.000  -0.000  -0.000  -0.000  -0.000  -0.000   0.000   0.000   0.000   0.000   0.000


------------------------ aborting loop because EDIFF is reached ----------------------------------------





 total charge

# of ion       s       p       d       tot
------------------------------------------
    1        0.333   6.324   7.654  14.311
    2        0.333   6.324   7.654  14.311
    3        1.573   3.376   0.000   4.950
    4        1.573   3.376   0.000   4.950
    5        1.573   3.376   0.000   4.950
    6        1.573   3.376   0.000   4.950
--------------------------------------------------
tot          6.961  26.152  15.308  48.421



 magnetization (x)

# of ion       s       p       d       tot
------------------------------------------
    1       -0.000  -0.000  -0.001  -0.001
    2       -0.000  -0.000  -0.001  -0.001
    3       -0.000  -0.000   0.000  -0.000
    4       -0.000  -0.000   0.000  -0.000
    5       -0.000  -0.000   0.000  -0.000
    6       -0.000  -0.000   0.000  -0.000
--------------------------------------------------
tot         -0.000  -0.000  -0.001  -0.002
 
    CHARGE:  cpu time      0.1689: real time      0.1689
    FORLOC:  cpu time      0.0017: real time      0.0017
    FORNL :  cpu time      0.4227: real time      0.4227
    FORCOR:  cpu time      0.6268: real time      0.6268
    FORHAR:  cpu time      0.0057: real time      0.0057
    MIXING:  cpu time      0.0017: real time      0.0017
    OFIELD:  cpu time      0.0000: real time      0.0000

 ---------------------------------------------------------------------------------------------

         DFTD3 V3.0 Rev 1        
 DF pbe       
 parameters
 k1-k3        =   16.0000    1.3333   -4.0000
 Edisp (eV)   -1.41402

 E6    (eV) :    -0.8848
 E8    (eV) :    -0.5293
 % E8        : 37.43
    FORVDW:  cpu time      0.0121: real time      0.0121

 VOLUME and BASIS-vectors are now :
 -----------------------------------------------------------------------------
  energy-cutoff  :      520.00
  volume of cell :       64.34
      direct lattice vectors                 reciprocal lattice vectors
     4.522230460  0.000000000  0.000000000     0.221129818 -0.000000000  0.000000000
     0.000000000  4.522230460  0.000000000     0.000000000  0.221129818  0.000000000
     0.000000000  0.000000000  3.146273630    -0.000000000 -0.000000000  0.317836310

  length of vectors
     4.522230460  4.522230460  3.146273630     0.221129818  0.221129818  0.317836310


 FORCES acting on ions
    electron-ion (+dipol)            ewald-force                    non-local-force                 convergence-correction
 -----------------------------------------------------------------------------------------------
   0.206E-11 0.725E-11 0.681E-11   0.284E-13 0.000E+00 0.158E-13   -.395E-23 0.000E+00 0.000E+00   -.649E-13 0.736E-14 -.292E-13
   -.907E-14 0.109E-13 -.128E-11   0.284E-13 0.114E-12 -.100E-13   0.110E-22 0.000E+00 0.000E+00   0.353E-13 0.439E-13 0.964E-14
   0.373E+02 -.373E+02 0.596E-11   -.386E+02 0.386E+02 0.163E-13   0.128E+01 -.128E+01 -.208E-16   0.115E-03 -.115E-03 -.158E-13
   -.373E+02 0.373E+02 0.614E-12   0.386E+02 -.386E+02 -.574E-14   -.128E+01 0.128E+01 0.208E-16   -.115E-03 0.115E-03 0.396E-14
   0.373E+02 0.373E+02 -.117E-07   -.386E+02 -.386E+02 0.191E-12   0.128E+01 0.128E+01 0.153E-15   0.115E-03 0.115E-03 -.258E-11
   -.373E+02 -.373E+02 0.117E-07   0.386E+02 0.386E+02 -.209E-12   -.128E+01 -.128E+01 -.153E-15   -.115E-03 -.115E-03 0.260E-11
 -----------------------------------------------------------------------------------------------
   -.496E-12 0.107E-10 0.213E-11   -.711E-14 0.355E-13 -.172E-14   0.000E+00 -.222E-15 0.000E+00   -.422E-13 0.235E-13 -.978E-14
 
 
 POSITION                                       TOTAL-FORCE (eV/Angst)
 -----------------------------------------------------------------------------------
      2.26112      2.26112      1.57314        -0.000000      0.000000      0.000000
      0.00000      0.00000      0.00000        -0.000000      0.000000      0.000000
      3.65465      0.86758      1.57314        -0.003194      0.003194      0.000000
      0.86758      3.65465      1.57314         0.003194     -0.003194     -0.000000
      1.39353      1.39353      0.00000        -0.003194     -0.003194     -0.000000
      3.12870      3.12870      0.00000         0.003194      0.003194      0.000000
 -----------------------------------------------------------------------------------
    total drift:                               -0.000000      0.000000      0.000000


--------------------------------------------------------------------------------------------------------



  FREE ENERGIE OF THE ION-ELECTRON SYSTEM (eV)
  ---------------------------------------------------
  free  energy   TOTEN  =       -33.50142092 eV

  energy  without entropy=      -33.49497669  energy(sigma->0) =      -33.49819881
 


--------------------------------------------------------------------------------------------------------


    POTLOK:  cpu time      0.6304: real time      0.6304


--------------------------------------------------------------------------------------------------------


     LOOP+:  cpu time     37.2648: real time     37.2983
    4ORBIT:  cpu time      0.0000: real time      0.0000



 total charge

# of ion       s       p       d       tot
------------------------------------------
    1        0.333   6.324   7.654  14.311
    2        0.333   6.324   7.654  14.311
    3        1.573   3.376   0.000   4.950
    4        1.573   3.376   0.000   4.950
    5        1.573   3.376   0.000   4.950
    6        1.573   3.376   0.000   4.950
--------------------------------------------------
tot          6.961  26.152  15.308  48.421



 magnetization (x)

# of ion       s       p       d       tot
------------------------------------------
    1       -0.000  -0.000  -0.001  -0.001
    2       -0.000  -0.000  -0.001  -0.001
    3       -0.000  -0.000   0.000  -0.000
    4       -0.000  -0.000   0.000  -0.000
    5       -0.000  -0.000   0.000  -0.000
    6       -0.000  -0.000   0.000  -0.000
--------------------------------------------------
tot         -0.000  -0.000  -0.001  -0.002
 

 total amount of memory used by VASP MPI-rank0    72112. kBytes
=======================================================================

   base      :      30000. kBytes
   nonl-proj :      12278. kBytes
   fftplans  :       9397. kBytes
   grid      :       7672. kBytes
   one-center:        186. kBytes
   wavefun   :      12579. kBytes
 
  
  
 General timing and accounting informations for this job:
 ========================================================
  
                  Total CPU time used (sec):       38.367
                            User time (sec):       36.930
                          System time (sec):        1.437
                         Elapsed time (sec):       38.690
  
                   Maximum memory used (kb):      360732.
                   Average memory used (kb):          N/A
  
                          Minor page faults:       311388
                          Major page faults:           10
                 Voluntary context switches:          395
