       N       E                     dE             d eps       ncg     rms          rms(c)
DAV:   1     0.475309398770E+03    0.47531E+03   -0.27842E+04  6720   0.178E+03
DAV:   2    -0.409094471465E+00   -0.47572E+03   -0.46012E+03  7400   0.507E+02
DAV:   3    -0.240814510160E+02   -0.23672E+02   -0.23385E+02  7432   0.115E+02
DAV:   4    -0.243658878662E+02   -0.28444E+00   -0.28421E+00  7284   0.138E+01
DAV:   5    -0.243688485192E+02   -0.29607E-02   -0.29605E-02  7428   0.144E+00    0.176E+01
DAV:   6    -0.227432527969E+02    0.16256E+01   -0.15567E+01  7044   0.357E+01    0.713E+00
DAV:   7    -0.221875211475E+02    0.55573E+00   -0.25368E+00  7024   0.172E+01    0.367E+00
DAV:   8    -0.222064442678E+02   -0.18923E-01   -0.41114E-01  7100   0.410E+00    0.151E+00
DAV:   9    -0.222019787922E+02    0.44655E-02   -0.24257E-02  7356   0.141E+00    0.443E-01
DAV:  10    -0.222033825398E+02   -0.14037E-02   -0.26059E-03  7136   0.423E-01    0.176E-01
DAV:  11    -0.222035715945E+02   -0.18905E-03   -0.36273E-04  7352   0.129E-01    0.868E-02
DAV:  12    -0.222035828465E+02   -0.11252E-04   -0.51916E-05  7168   0.535E-02    0.209E-02
DAV:  13    -0.222035928743E+02   -0.10028E-04   -0.13404E-05  7192   0.260E-02    0.845E-03
DAV:  14    -0.222035942895E+02   -0.14151E-05   -0.17245E-06  5136   0.104E-02    0.332E-03
DAV:  15    -0.222035945105E+02   -0.22108E-06   -0.55338E-07  4272   0.595E-03
   1 F= -.23447318E+02 E0= -.23446611E+02  d E =-.141463E-02  mag=    -0.0000
