119
Lattice="12.303473692417112 0.0 0.0 0.0 12.303473692417114 0.0 0.0 0.0 29.165420746594243" Properties=species:S:1:pos:R:3:move_mask:L:1:momenta:R:3:forces:R:3 idx=7501 E_MACE=-601.6654890648126 d_min=1.1803108267318116 d_reactive=5.2615019009129655 rank=0 dE_rel_meV=0.0 converged=T energy=-601.6654890648126 stress="0.005958697982464148 0.0005995080585234361 -2.673982364662281e-05 0.0005995080585234361 0.0056388325670337245 1.4278520966911105e-06 -2.673982364662281e-05 1.4278520966911105e-06 -0.003327677485803404" pbc="T T T"
O        8.47857992      11.50310546       9.39779919  T       0.00000000       0.00000000       0.00000000       0.00907934      -0.00384777       0.02179475
O       11.52624207       5.37773713       9.40273861  T       0.00000000       0.00000000       0.00000000      -0.02151071       0.01399020      -0.02114226
O       11.53564875       1.64635444      10.54945855  T       0.00000000       0.00000000       0.00000000      -0.00500565       0.02235428       0.01205202
O       11.50292017      11.54609926       9.38033986  T       0.00000000       0.00000000       0.00000000      -0.00017520       0.01219584       0.01944632
O        9.67885365       9.44704053      13.12693436  T       0.00000000       0.00000000       0.00000000       0.00360418       0.01024896      -0.02520595
O        5.40955459      11.56314957       9.32294070  T       0.00000000       0.00000000       0.00000000       0.02457690      -0.02991182      -0.00265968
O        5.48785772       7.79783350      10.59569124  T       0.00000000       0.00000000       0.00000000      -0.01829184       0.00324667       0.01060594
O        8.54090529       5.59536567       9.37113919  T       0.00000000       0.00000000       0.00000000      -0.02209556       0.01979362       0.02709537
O       11.62829545       7.82273161      10.57328791  T       0.00000000       0.00000000       0.00000000      -0.00184068       0.02898785      -0.02147228
O        2.37613597       5.43441837       9.36256591  T       0.00000000       0.00000000       0.00000000       0.00650239       0.00928652      -0.01107697
O        2.31120075       1.66648486      10.51314171  T       0.00000000       0.00000000       0.00000000      -0.00008643       0.00403638       0.01366638
O        2.30636941      11.59989785       9.33223186  T       0.00000000       0.00000000       0.00000000       0.01154753       0.01766554       0.03730812
O        5.40681733       5.40291175       9.35710624  T       0.00000000       0.00000000       0.00000000       0.00152480       0.00607952       0.00116902
O        5.43114647       1.65934790      10.49907206  T       0.00000000       0.00000000       0.00000000       0.00504297      -0.03473905       0.01897713
O        2.30494849       7.78840305      10.55710005  T       0.00000000       0.00000000       0.00000000       0.01097935       0.00162522      -0.02115255
O        8.46378245       1.73332224      10.47733174  T       0.00000000       0.00000000       0.00000000       0.02797554      -0.01117901       0.00586269
Pd       5.53656316       9.22760527       1.50000000  F       0.00000000       0.00000000       0.00000000       0.00034309      -0.00957550      -0.23071470
Pd       6.09973339       7.46747276       7.38573952  T       0.00000000       0.00000000       0.00000000      -0.00634908      -0.01115983       0.00151384
Pd       4.28815433       6.78245218       5.40241719  F       0.00000000       0.00000000       0.00000000      -0.03271124       0.01456841       0.17981714
Pd       6.15173685       7.38208422       3.44535000  F       0.00000000       0.00000000       0.00000000       0.00021246       0.00374677       0.05003916
Pd       7.33784125       3.67506702       7.35895455  T       0.00000000       0.00000000       0.00000000       0.00141335      -0.02373410       0.01001659
Pd       5.51948843       3.08419342       5.37702261  F       0.00000000       0.00000000       0.00000000      -0.00362135       0.03983509       0.27157925
Pd       6.76691053       5.53656316       1.50000000  F       0.00000000       0.00000000       0.00000000       0.00252576       0.00515958      -0.23180205
Pd       7.38208422       9.84277895       3.44535000  F       0.00000000       0.00000000       0.00000000       0.07527639       0.01621237       0.10800528
Pd       7.99725790       7.99725790       1.50000000  F       0.00000000       0.00000000       0.00000000      -0.00172791       0.01252435      -0.23227507
Pd       5.51951598       9.23590192       5.37700272  F       0.00000000       0.00000000       0.00000000      -0.07154911      -0.00756502       0.22152906
Pd       8.00616182       7.98477587       5.40628129  F       0.00000000       0.00000000       0.00000000       0.00999274       0.02992620       0.07467391
Pd       6.76691053      11.68830001       1.50000000  F       0.00000000       0.00000000       0.00000000       0.00222538       0.00708268      -0.23536865
Pd       8.61243158       0.00000000       3.44535000  F       0.00000000       0.00000000       0.00000000       0.03254521      -0.04304709       0.11459114
Pd       6.75606179      11.70364973       5.37992114  F       0.00000000       0.00000000       0.00000000       0.09739197      -0.04347679       0.17079585
Pd       8.56190056      -0.04400834       7.45721072  T       0.00000000       0.00000000       0.00000000       0.00789279      -0.02196416       0.01469970
Pd       9.84277895       8.61243158       3.44535000  F       0.00000000       0.00000000       0.00000000      -0.07271004       0.05019252       0.07846110
Pd       7.38208422       3.69104211       3.44535000  F       0.00000000       0.00000000       0.00000000       0.07477573       0.01657769       0.13046367
Pd       3.69104211       8.61243158       3.44535000  F       0.00000000       0.00000000       0.00000000      -0.06288406       0.03979871       0.09217777
Pd       9.84217261       8.63040400       7.45914771  T       0.00000000       0.00000000       0.00000000      -0.02475650       0.01417684       0.00830879
Pd       9.22760527      10.45795264       1.50000000  F       0.00000000       0.00000000       0.00000000      -0.00514536      -0.00260355      -0.22733517
Pd       7.30700703       9.82107440       7.35441825  T       0.00000000       0.00000000       0.00000000      -0.00208688      -0.00340720       0.00409644
Pd       1.84552105       7.99725790       1.50000000  F       0.00000000       0.00000000       0.00000000      -0.00219068       0.01221022      -0.23614498
Pd      11.68830001       9.22760527       1.50000000  F       0.00000000       0.00000000       0.00000000       0.00086988      -0.00935083      -0.23074215
Pd       0.60431863      11.70356305       5.37989931  F       0.00000000       0.00000000       0.00000000       0.03211129      -0.09532718       0.15320309
Pd       8.61243158       6.15173685       3.44535000  F       0.00000000       0.00000000       0.00000000       0.03699446      -0.05387367       0.10739273
Pd       6.75605293       5.55187564       5.37990856  F       0.00000000       0.00000000       0.00000000       0.06191884      -0.04577444       0.14100902
Pd       8.56169893       6.16048588       7.40168753  T       0.00000000       0.00000000       0.00000000       0.01012027       0.00554444      -0.03216093
Pd       7.99725790       1.84552105       1.50000000  F       0.00000000       0.00000000       0.00000000      -0.00176785       0.01185596      -0.23473277
Pd       9.84277895       2.46069474       3.44535000  F       0.00000000       0.00000000       0.00000000      -0.07667158       0.03997309       0.10046987
Pd       8.00617313       1.83308050       5.40627808  F       0.00000000       0.00000000       0.00000000       0.10031914      -0.03219080       0.15625506
Pd       9.80992596       2.45563661       7.49802303  T       0.00000000       0.00000000       0.00000000      -0.00097037       0.00432817      -0.00010492
Pd       9.22760527       4.30621579       1.50000000  F       0.00000000       0.00000000       0.00000000      -0.00378070      -0.00408221      -0.22845200
Pd       4.92138948       4.92138948       3.44535000  F       0.00000000       0.00000000       0.00000000      -0.08818604       0.02341726       0.06866417
Pd       9.24120632       4.30429098       5.43698789  T       0.00000000       0.00000000       0.00000000       0.00922854      -0.00093289       0.01983152
Pd       4.93096351       4.98014432       7.40778914  T       0.00000000       0.00000000       0.00000000       0.00749620      -0.00174510       0.00172050
Pd      10.45795264       6.76691053       1.50000000  F       0.00000000       0.00000000       0.00000000       0.00370986      -0.00576501      -0.23269775
Pd       0.00000000       7.38208422       3.44535000  F       0.00000000       0.00000000       0.00000000      -0.00393564       0.00577320       0.05743531
Pd      10.43991375       6.78245558       5.40242713  F       0.00000000       0.00000000       0.00000000       0.01147929      -0.07173898       0.15939967
Pd      12.26760143       7.45076950       7.39332314  T       0.00000000       0.00000000       0.00000000      -0.01119374      -0.00615094       0.00010516
Pd       4.92138948      11.07312632       3.44535000  F       0.00000000       0.00000000       0.00000000      -0.10312321       0.02393752       0.06708526
Pd       1.23034737       9.84277895       3.44535000  F       0.00000000       0.00000000       0.00000000       0.05982885       0.01191249       0.11699140
Pd      11.67120661       9.23591801       5.37701028  F       0.00000000       0.00000000       0.00000000       0.02298952       0.02237534       0.26250106
Pd       1.18783173       9.79471852       7.39044747  T       0.00000000       0.00000000       0.00000000       0.00791167      -0.02129768      -0.00724520
Pd       0.61517368      11.68830001       1.50000000  F       0.00000000       0.00000000       0.00000000       0.00240697       0.00532371      -0.23264748
Pd       2.46069474       0.00000000       3.44535000  F       0.00000000       0.00000000       0.00000000       0.03845246      -0.05848647       0.12523437
Pd       2.39376655      -0.01353152       7.39680759  T       0.00000000       0.00000000       0.00000000       0.01297801       0.00970968      -0.01636737
Pd       9.23628983      10.46033437       5.43437735  T       0.00000000       0.00000000       0.00000000       0.00533022      -0.00315116      -0.01433926
Pd       3.67209345       8.61822952       7.51846005  T       0.00000000       0.00000000       0.00000000      -0.00226279       0.01317234       0.00820978
Pd       4.30621579       0.61517368       1.50000000  F       0.00000000       0.00000000       0.00000000       0.00399048      -0.00677450      -0.23124130
Pd      11.07312632       4.92138948       3.44535000  F       0.00000000       0.00000000       0.00000000      -0.08737811       0.02962413       0.07313172
Pd       4.30621579       6.76691053       1.50000000  F       0.00000000       0.00000000       0.00000000       0.00180332      -0.00576240      -0.23317580
Pd       3.68001527       2.46028603       7.49669657  T       0.00000000       0.00000000       0.00000000      -0.00460938       0.01336142       0.00738443
Pd       2.40955552       6.14824645       7.41545585  T       0.00000000       0.00000000       0.00000000       0.00082420       0.00821185      -0.00054191
Pd       0.60433818       5.55187436       5.37993065  F       0.00000000       0.00000000       0.00000000       0.04043369      -0.06118429       0.15928952
Pd       2.46069474       6.15173685       3.44535000  F       0.00000000       0.00000000       0.00000000       0.03683483      -0.05820322       0.11039682
Pd       0.61517368       5.53656316       1.50000000  F       0.00000000       0.00000000       0.00000000       0.00170732       0.00491301      -0.23464812
Pd       1.18932509       3.65812299       7.35149482  T       0.00000000       0.00000000       0.00000000       0.00087759      -0.00912473       0.00999778
Pd      11.67123156       3.08419612       5.37703229  F       0.00000000       0.00000000       0.00000000      -0.03131060       0.04783315       0.27241387
Pd       7.04367010       6.84474344       9.85770208  T       0.00000000       0.00000000       0.00000000       0.02862653      -0.02374947       0.00259426
Pd       1.23034737       3.69104211       3.44535000  F       0.00000000       0.00000000       0.00000000       0.08033595       0.01592946       0.13801532
Pd      12.26010565       1.31529581       7.38531077  T       0.00000000       0.00000000       0.00000000       0.00272131      -0.01269671       0.02352967
Pd      10.43990395       0.63072067       5.40242717  F       0.00000000       0.00000000       0.00000000      -0.07984794      -0.01567002       0.22109525
Pd       0.00000000       1.23034737       3.44535000  F       0.00000000       0.00000000       0.00000000      -0.00026582       0.01180696       0.04240125
Pd       1.84552105       1.84552105       1.50000000  F       0.00000000       0.00000000       0.00000000      -0.00255361       0.01286260      -0.23242390
Pd      10.45795264       0.61517368       1.50000000  F       0.00000000       0.00000000       0.00000000       0.00285869      -0.00652532      -0.23443962
Pd      11.09455244      11.11656516       7.40278844  T       0.00000000       0.00000000       0.00000000      -0.01317786       0.02799601      -0.00118249
Pd       3.07809444      10.44100869       5.43811581  T       0.00000000       0.00000000       0.00000000       0.02394719       0.01415886      -0.02089641
Pd       3.69104211       2.46069474       3.44535000  F       0.00000000       0.00000000       0.00000000      -0.07357533       0.04254436       0.10233828
Pd       1.85442396       1.83305046       5.40626716  F       0.00000000       0.00000000       0.00000000       0.07585399       0.02424700       0.07172342
Pd      11.68830001       3.07586842       1.50000000  F       0.00000000       0.00000000       0.00000000      -0.00150385      -0.01049357      -0.23418888
Pd       0.75881727       0.50844713       9.90744716  T       0.00000000       0.00000000       0.00000000       0.02746633       0.00747114      -0.01219539
Pd       2.36552315       3.45681341       9.74805871  T       0.00000000       0.00000000       0.00000000       0.01229360       0.00818792       0.00087465
Pd       3.91696744       6.69801500       9.92160654  T       0.00000000       0.00000000       0.00000000      -0.04087510       0.00954386      -0.00242223
Pd       6.15173685       1.23034737       3.44535000  F       0.00000000       0.00000000       0.00000000       0.00158020       0.00400056       0.05241767
Pd       4.28818081       0.63072761       5.40241929  F       0.00000000       0.00000000       0.00000000      -0.06782461      -0.01795116       0.14023632
Pd       6.12606278       1.30571639       7.37267958  T       0.00000000       0.00000000       0.00000000       0.01533915       0.02680393       0.00518440
Pd       5.53656316       3.07586842       1.50000000  F       0.00000000       0.00000000       0.00000000      -0.00175839      -0.01018101      -0.23316598
Pd       1.85444455       7.98478761       5.40627529  F       0.00000000       0.00000000       0.00000000       0.04815880       0.00789805       0.14901654
Pd       5.43075544       3.40338153       9.64141692  T       0.00000000       0.00000000       0.00000000      -0.00760699      -0.00219702       0.00791420
Pd       3.07586842      10.45795264       1.50000000  F       0.00000000       0.00000000       0.00000000      -0.00260523      -0.00092327      -0.22701743
Pd       3.07586842       4.30621579       1.50000000  F       0.00000000       0.00000000       0.00000000      -0.00596098      -0.00217041      -0.22733658
Pd       3.08957483       4.30398578       5.43908536  T       0.00000000       0.00000000       0.00000000       0.00987528      -0.01187103      -0.02582874
Pd      11.09412955       4.96494440       7.42312795  T       0.00000000       0.00000000       0.00000000      -0.00863051       0.00477570       0.00558269
Pd      11.07312632      11.07312632       3.44535000  F       0.00000000       0.00000000       0.00000000      -0.07954463       0.02734453       0.06089580
Pd       9.99016444       0.52332111       9.90964018  T       0.00000000       0.00000000       0.00000000      -0.02215500      -0.01432865      -0.00716541
Pd       6.95899901       0.50748591       9.87645848  T       0.00000000       0.00000000       0.00000000      -0.02172568       0.00275996       0.00890160
Pd       8.41301019       9.25906925       9.68187195  T       0.00000000       0.00000000       0.00000000       0.02107570       0.01732441      -0.02290338
Pd       0.79656463       6.63077979       9.91032168  T       0.00000000       0.00000000       0.00000000       0.00877043      -0.00839917      -0.00645073
Pd       5.48462684       9.57342706       9.79384659  T       0.00000000       0.00000000       0.00000000      -0.00312139       0.02176842      -0.00038275
Pd      11.55881235       3.37969332       9.65392652  T       0.00000000       0.00000000       0.00000000      -0.01826391      -0.03846765       0.02375955
Pd       8.53740609       3.56094921       9.74979369  T       0.00000000       0.00000000       0.00000000      -0.00203993      -0.00601649      -0.01612744
Pd      10.01590455       6.91663792       9.83627556  T       0.00000000       0.00000000       0.00000000      -0.01851706      -0.03350142      -0.00768680
Pd       3.87753070       0.53384500       9.88070216  T       0.00000000       0.00000000       0.00000000      -0.01233201       0.01406418      -0.00453259
Pd       2.30065920       9.61838146       9.82403567  T       0.00000000       0.00000000       0.00000000      -0.01771955       0.02541338      -0.00947191
Pd       4.91104013      11.11352676       7.38954982  T       0.00000000       0.00000000       0.00000000       0.02953470       0.00525637       0.00432665
Pd      11.62128418       9.54950543       9.68982051  T       0.00000000       0.00000000       0.00000000       0.00752132      -0.02205406       0.00292051
C        8.84015574      10.26115555      12.96281184  T       0.00000000       0.00000000       0.00000000      -0.03010030       0.03173490       0.00884457
O        7.99951013      11.07556089      12.81302537  T       0.00000000       0.00000000       0.00000000       0.00864168      -0.02778162      -0.00641137
O        3.91295640      10.11545341      11.12300754  T       0.00000000       0.00000000       0.00000000      -0.02040267      -0.00172497       0.01398734
C        3.91845468       9.62538743      12.47042010  T       0.00000000       0.00000000       0.00000000      -0.01362270       0.01484266      -0.01543935
H        2.99063428       9.96677599      12.96835400  T       0.00000000       0.00000000       0.00000000       0.03051989      -0.00131720      -0.01199889
H        3.97902834       8.52388478      12.51745000  T       0.00000000       0.00000000       0.00000000      -0.01177180       0.00374400       0.01919083
H        4.78528635      10.07110009      12.99374068  T       0.00000000       0.00000000       0.00000000      -0.00373436      -0.01012043       0.00249618
