119
Lattice="12.303473692417112 0.0 0.0 0.0 12.303473692417114 0.0 0.0 0.0 29.165420746594243" Properties=species:S:1:pos:R:3:move_mask:L:1:momenta:R:3:forces:R:3 idx=2978 E_MACE=-598.832393942144 d_min=2.6408111454424446 d_reactive=4.320394955467796 rank=11594 dE_rel_meV=2833.095122668624 converged=T energy=-598.832393942144 stress="0.005561639160457247 0.0003751187710313258 -6.246606538968715e-05 0.0003751187710313258 0.004763162993468013 9.343904976395679e-05 -6.246606538968715e-05 9.343904976395679e-05 -0.0033451228836201743" pbc="T T T"
O        8.47773610      11.60469098       9.35474014  T       0.00000000       0.00000000       0.00000000       0.00827739      -0.00671723      -0.00178815
O       11.49883360       5.41437541       9.38403433  T       0.00000000       0.00000000       0.00000000      -0.01476745      -0.01271894       0.00449010
O       11.54956194       1.66003131      10.56545696  T       0.00000000       0.00000000       0.00000000      -0.02679973       0.01509847       0.00421570
O       11.49816693      11.55176904       9.37722466  T       0.00000000       0.00000000       0.00000000      -0.00522099      -0.01270015      -0.00210582
O        8.43858188       7.84912026      10.54311982  T       0.00000000       0.00000000       0.00000000       0.00005554      -0.01432315       0.01904957
O        5.34350936      11.56566386       9.38110688  T       0.00000000       0.00000000       0.00000000       0.01283216       0.00164455      -0.00722944
O        5.39270311       7.81850056      10.58332583  T       0.00000000       0.00000000       0.00000000      -0.00565831       0.00140932      -0.01069065
O        8.46639097       5.46400931       9.36309985  T       0.00000000       0.00000000       0.00000000       0.00274330       0.00602609      -0.00315265
O       11.54912262       7.80907858      10.58890155  T       0.00000000       0.00000000       0.00000000      -0.01243454       0.00345790      -0.01805539
O        2.31962320       5.45952782       9.35915653  T       0.00000000       0.00000000       0.00000000      -0.00512574      -0.02170395       0.03934527
O        2.26533849       1.69297622      10.52811470  T       0.00000000       0.00000000       0.00000000       0.01550994      -0.01768014      -0.01604745
O        2.32282502      11.60895699       9.36313819  T       0.00000000       0.00000000       0.00000000       0.00111738      -0.02583416       0.01084216
O        5.34578031       5.42482397       9.37499457  T       0.00000000       0.00000000       0.00000000       0.00593333      -0.01628720       0.01280290
O        5.41312707       1.67183708      10.52437325  T       0.00000000       0.00000000       0.00000000       0.00523641       0.02720258      -0.01527100
O        2.28673538       7.84314286      10.54906262  T       0.00000000       0.00000000       0.00000000      -0.01198678       0.01829047      -0.00319672
O        8.44506869       1.69587476      10.53054379  T       0.00000000       0.00000000       0.00000000       0.01358986      -0.03016169      -0.00342086
Pd       5.53656316       9.22760527       1.50000000  F       0.00000000       0.00000000       0.00000000      -0.00036093      -0.00955281      -0.23246565
Pd       6.11352317       7.46211149       7.38783481  T       0.00000000       0.00000000       0.00000000       0.00244013      -0.00115999       0.00338440
Pd       4.28815433       6.78245218       5.40241719  F       0.00000000       0.00000000       0.00000000      -0.04734745       0.00124233       0.18787931
Pd       6.15173685       7.38208422       3.44535000  F       0.00000000       0.00000000       0.00000000      -0.00204806       0.00453336       0.05221601
Pd       7.33317242       3.65666852       7.35489089  T       0.00000000       0.00000000       0.00000000      -0.00238523       0.00131609       0.01006023
Pd       5.51948843       3.08419342       5.37702261  F       0.00000000       0.00000000       0.00000000      -0.04165676       0.02152587       0.26470942
Pd       6.76691053       5.53656316       1.50000000  F       0.00000000       0.00000000       0.00000000       0.00199400       0.00517321      -0.23345024
Pd       7.38208422       9.84277895       3.44535000  F       0.00000000       0.00000000       0.00000000       0.07349746       0.01377197       0.12745771
Pd       7.99725790       7.99725790       1.50000000  F       0.00000000       0.00000000       0.00000000      -0.00235089       0.01233347      -0.23343006
Pd       5.51951598       9.23590192       5.37700272  F       0.00000000       0.00000000       0.00000000      -0.03117271       0.02432668       0.25836950
Pd       8.00616182       7.98477587       5.40628129  F       0.00000000       0.00000000       0.00000000       0.07231594       0.01185915       0.08960575
Pd       6.76691053      11.68830001       1.50000000  F       0.00000000       0.00000000       0.00000000       0.00175745       0.00518519      -0.23356182
Pd       8.61243158       0.00000000       3.44535000  F       0.00000000       0.00000000       0.00000000       0.03678363      -0.04960080       0.11479606
Pd       6.75606179      11.70364973       5.37992114  F       0.00000000       0.00000000       0.00000000       0.04300744      -0.06341665       0.13432636
Pd       8.56089009      -0.00796616       7.40464605  T       0.00000000       0.00000000       0.00000000      -0.01008208       0.00574055       0.00059072
Pd       9.84277895       8.61243158       3.44535000  F       0.00000000       0.00000000       0.00000000      -0.06927571       0.03823594       0.09016838
Pd       7.38208422       3.69104211       3.44535000  F       0.00000000       0.00000000       0.00000000       0.07570773       0.01349400       0.13004309
Pd       3.69104211       8.61243158       3.44535000  F       0.00000000       0.00000000       0.00000000      -0.07001967       0.04081527       0.09555910
Pd       9.82486059       8.61756610       7.50436514  T       0.00000000       0.00000000       0.00000000      -0.00321755       0.00345096       0.01636019
Pd       9.22760527      10.45795264       1.50000000  F       0.00000000       0.00000000       0.00000000      -0.00520732      -0.00259697      -0.22777705
Pd       7.33072791       9.80759334       7.35420469  T       0.00000000       0.00000000       0.00000000       0.00638847      -0.00424695       0.00605338
Pd       1.84552105       7.99725790       1.50000000  F       0.00000000       0.00000000       0.00000000      -0.00243314       0.01245501      -0.23327692
Pd      11.68830001       9.22760527       1.50000000  F       0.00000000       0.00000000       0.00000000      -0.00063923      -0.00978014      -0.23277208
Pd       0.60431863      11.70356305       5.37989931  F       0.00000000       0.00000000       0.00000000       0.06193539      -0.06421474       0.14735053
Pd       8.61243158       6.15173685       3.44535000  F       0.00000000       0.00000000       0.00000000       0.03559734      -0.05076160       0.11486919
Pd       6.75605293       5.55187564       5.37990856  F       0.00000000       0.00000000       0.00000000       0.04900902      -0.05418341       0.13740021
Pd       8.55460793       6.14605914       7.41165075  T       0.00000000       0.00000000       0.00000000       0.00292627       0.00655295      -0.00396244
Pd       7.99725790       1.84552105       1.50000000  F       0.00000000       0.00000000       0.00000000      -0.00251001       0.01212725      -0.23365368
Pd       9.84277895       2.46069474       3.44535000  F       0.00000000       0.00000000       0.00000000      -0.07055347       0.04132248       0.09585931
Pd       8.00617313       1.83308050       5.40627808  F       0.00000000       0.00000000       0.00000000       0.08440360       0.02303841       0.08161459
Pd       9.82252739       2.46911297       7.50850342  T       0.00000000       0.00000000       0.00000000       0.00028889      -0.00058731       0.00168470
Pd       9.22760527       4.30621579       1.50000000  F       0.00000000       0.00000000       0.00000000      -0.00514794      -0.00260481      -0.22772833
Pd       4.92138948       4.92138948       3.44535000  F       0.00000000       0.00000000       0.00000000      -0.08913919       0.02214467       0.06559020
Pd       9.23914610       4.30086297       5.43558044  T       0.00000000       0.00000000       0.00000000       0.00536221      -0.00332626      -0.00213652
Pd       4.93146463       4.97068875       7.40051270  T       0.00000000       0.00000000       0.00000000      -0.00323659       0.00060244      -0.00610290
Pd      10.45795264       6.76691053       1.50000000  F       0.00000000       0.00000000       0.00000000       0.00316439      -0.00567265      -0.23308025
Pd       0.00000000       7.38208422       3.44535000  F       0.00000000       0.00000000       0.00000000      -0.00210960       0.00541259       0.05277595
Pd      10.43991375       6.78245558       5.40242713  F       0.00000000       0.00000000       0.00000000      -0.03705621      -0.00669489       0.19141720
Pd      12.26612289       7.45726774       7.39072593  T       0.00000000       0.00000000       0.00000000      -0.00311281       0.00605925       0.00224161
Pd       4.92138948      11.07312632       3.44535000  F       0.00000000       0.00000000       0.00000000      -0.08654560       0.02382845       0.06200080
Pd       1.23034737       9.84277895       3.44535000  F       0.00000000       0.00000000       0.00000000       0.07799129       0.01548350       0.13296568
Pd      11.67120661       9.23591801       5.37701028  F       0.00000000       0.00000000       0.00000000      -0.01928454       0.01149131       0.26037488
Pd       1.18237968       9.80236937       7.35727270  T       0.00000000       0.00000000       0.00000000      -0.00002560       0.00572381       0.00550549
Pd       0.61517368      11.68830001       1.50000000  F       0.00000000       0.00000000       0.00000000       0.00177217       0.00499316      -0.23336866
Pd       2.46069474       0.00000000       3.44535000  F       0.00000000       0.00000000       0.00000000       0.03660098      -0.05311316       0.11680681
Pd       2.40493407      -0.01046976       7.41311131  T       0.00000000       0.00000000       0.00000000      -0.00159804       0.00050617      -0.01044772
Pd       9.23969994      10.45097365       5.43397252  T       0.00000000       0.00000000       0.00000000       0.00047879      -0.00126801      -0.00522642
Pd       3.67477950       8.62150306       7.50999704  T       0.00000000       0.00000000       0.00000000      -0.00530813      -0.00154923       0.00081856
Pd       4.30621579       0.61517368       1.50000000  F       0.00000000       0.00000000       0.00000000       0.00326481      -0.00569594      -0.23382799
Pd      11.07312632       4.92138948       3.44535000  F       0.00000000       0.00000000       0.00000000      -0.08673602       0.02301748       0.06487998
Pd       4.30621579       6.76691053       1.50000000  F       0.00000000       0.00000000       0.00000000       0.00314594      -0.00609027      -0.23292363
Pd       3.67205944       2.46666536       7.51690634  T       0.00000000       0.00000000       0.00000000      -0.00546496       0.00339427      -0.01070496
Pd       2.40553874       6.14702479       7.41289970  T       0.00000000       0.00000000       0.00000000      -0.00741340       0.00467999      -0.02885769
Pd       0.60433818       5.55187436       5.37993065  F       0.00000000       0.00000000       0.00000000       0.04425753      -0.05953656       0.15597297
Pd       2.46069474       6.15173685       3.44535000  F       0.00000000       0.00000000       0.00000000       0.03676441      -0.05031589       0.11663042
Pd       0.61517368       5.53656316       1.50000000  F       0.00000000       0.00000000       0.00000000       0.00198397       0.00495694      -0.23336502
Pd       1.18076206       3.65701314       7.35817417  T       0.00000000       0.00000000       0.00000000       0.00802492      -0.00630754       0.01045722
Pd      11.67123156       3.08419612       5.37703229  F       0.00000000       0.00000000       0.00000000      -0.03038412       0.03331469       0.25822896
Pd       6.90603677       6.68130832       9.91618040  T       0.00000000       0.00000000       0.00000000       0.01385078      -0.01161713      -0.00059026
Pd       1.23034737       3.69104211       3.44535000  F       0.00000000       0.00000000       0.00000000       0.07409617       0.01392633       0.12818200
Pd      12.26402203       1.31028234       7.38226499  T       0.00000000       0.00000000       0.00000000      -0.00430650      -0.00210093       0.01404769
Pd      10.43990395       0.63072067       5.40242717  F       0.00000000       0.00000000       0.00000000      -0.04121195       0.00255559       0.17431347
Pd       0.00000000       1.23034737       3.44535000  F       0.00000000       0.00000000       0.00000000      -0.00277571       0.00503380       0.05210715
Pd       1.84552105       1.84552105       1.50000000  F       0.00000000       0.00000000       0.00000000      -0.00235552       0.01249276      -0.23424037
Pd      10.45795264       0.61517368       1.50000000  F       0.00000000       0.00000000       0.00000000       0.00349005      -0.00603634      -0.23294940
Pd      11.08718713      11.11911238       7.40282054  T       0.00000000       0.00000000       0.00000000       0.00666326      -0.00174371       0.00113587
Pd       3.08976073      10.45199849       5.43669227  T       0.00000000       0.00000000       0.00000000      -0.01112208      -0.00173180      -0.00581353
Pd       3.69104211       2.46069474       3.44535000  F       0.00000000       0.00000000       0.00000000      -0.07001799       0.03976286       0.09377919
Pd       1.85442396       1.83305046       5.40626716  F       0.00000000       0.00000000       0.00000000       0.08700934       0.01379529       0.10845312
Pd      11.68830001       3.07586842       1.50000000  F       0.00000000       0.00000000       0.00000000      -0.00021477      -0.00972395      -0.23260591
Pd       0.75215426       0.51191491       9.90715732  T       0.00000000       0.00000000       0.00000000       0.01288536       0.00261852      -0.00044525
Pd       2.32274229       3.47882020       9.77270146  T       0.00000000       0.00000000       0.00000000      -0.01455717       0.03199393      -0.02098538
Pd       3.84647952       6.71237847       9.91996998  T       0.00000000       0.00000000       0.00000000      -0.00289407       0.01290176       0.02243630
Pd       6.15173685       1.23034737       3.44535000  F       0.00000000       0.00000000       0.00000000      -0.00229498       0.00622365       0.05276649
Pd       4.28818081       0.63072761       5.40241929  F       0.00000000       0.00000000       0.00000000      -0.04784579       0.00528116       0.19381759
Pd       6.11604907       1.30941813       7.38432750  T       0.00000000       0.00000000       0.00000000      -0.00244173      -0.00248463       0.00240325
Pd       5.53656316       3.07586842       1.50000000  F       0.00000000       0.00000000       0.00000000      -0.00056442      -0.00956252      -0.23294803
Pd       1.85444455       7.98478761       5.40627529  F       0.00000000       0.00000000       0.00000000       0.07940516       0.01252052       0.09787479
Pd       5.39616937       3.41316374       9.67980108  T       0.00000000       0.00000000       0.00000000       0.00608599       0.00036804       0.02101340
Pd       3.07586842      10.45795264       1.50000000  F       0.00000000       0.00000000       0.00000000      -0.00545123      -0.00253816      -0.22803688
Pd       3.07586842       4.30621579       1.50000000  F       0.00000000       0.00000000       0.00000000      -0.00502491      -0.00253962      -0.22793218
Pd       3.08598410       4.29874104       5.43550626  T       0.00000000       0.00000000       0.00000000       0.00826277       0.00420147       0.00459995
Pd      11.08207506       4.96961573       7.40755376  T       0.00000000       0.00000000       0.00000000       0.00716371       0.00236289      -0.00943127
Pd      11.07312632      11.07312632       3.44535000  F       0.00000000       0.00000000       0.00000000      -0.08468753       0.02489991       0.05890300
Pd      10.00434220       0.54931478       9.91537111  T       0.00000000       0.00000000       0.00000000      -0.00601306       0.02770537       0.01920802
Pd       6.91932400       0.51849765       9.90152922  T       0.00000000       0.00000000       0.00000000      -0.00166213      -0.01299984      -0.00570325
Pd       8.48461804       9.63105942       9.75728157  T       0.00000000       0.00000000       0.00000000      -0.00678893      -0.01236442       0.02059522
Pd       0.75616197       6.67066216       9.92027666  T       0.00000000       0.00000000       0.00000000       0.02602802       0.00709669       0.00246779
Pd       5.38586851       9.55624116       9.69671989  T       0.00000000       0.00000000       0.00000000      -0.00105063      -0.00660981       0.00512136
Pd      11.54127793       3.39825251       9.68404931  T       0.00000000       0.00000000       0.00000000       0.00820158      -0.00313645      -0.00789353
Pd       8.48203179       3.48534612       9.76174315  T       0.00000000       0.00000000       0.00000000       0.00016243      -0.00457735       0.00062520
Pd       9.99886600       6.70988207       9.92515807  T       0.00000000       0.00000000       0.00000000       0.01448337       0.00011507      -0.00414711
Pd       3.84397913       0.56300664       9.92608790  T       0.00000000       0.00000000       0.00000000      -0.02659349       0.00182981       0.00750959
Pd       2.33407446       9.63093619       9.77060187  T       0.00000000       0.00000000       0.00000000      -0.01040807       0.00280777       0.00752606
Pd       4.93654386      11.12422961       7.40735519  T       0.00000000       0.00000000       0.00000000       0.00022808      -0.00015658       0.00725969
Pd      11.54542994       9.54177659       9.68973184  T       0.00000000       0.00000000       0.00000000       0.00055933      -0.00189828       0.01729398
C        0.15043591       0.59336755      13.60279968  T       0.00000000       0.00000000       0.00000000      -0.01292284       0.01775382       0.00128770
O        0.08106499      -0.53661591      13.41136558  T       0.00000000       0.00000000       0.00000000       0.01377801      -0.01640325      -0.03932103
O        4.26013199       1.73733297      12.91902061  T       0.00000000       0.00000000       0.00000000       0.00146389      -0.00750032       0.01339763
C        4.70419044       0.47527125      13.14275151  T       0.00000000       0.00000000       0.00000000       0.02409982      -0.00243558      -0.01664450
H        4.41097849       0.09690256      14.15607070  T       0.00000000       0.00000000       0.00000000      -0.00841399       0.00013293      -0.00576325
H        4.27606575      -0.27275516      12.39361437  T       0.00000000       0.00000000       0.00000000      -0.00655155       0.00257031      -0.00558358
H        5.82267419       0.37544159      13.04741836  T       0.00000000       0.00000000       0.00000000      -0.02008902       0.00037533       0.03821675
