119
Lattice="12.303473692417112 0.0 0.0 0.0 12.303473692417114 0.0 0.0 0.0 29.165420746594243" Properties=species:S:1:pos:R:3:move_mask:L:1:momenta:R:3:forces:R:3 idx=9196 E_MACE=-600.3059604909355 d_min=2.0836031626520986 d_reactive=5.061875672536363 rank=5801 dE_rel_meV=1359.528573877128 converged=T energy=-600.3059604909355 stress="0.0054592107974528415 0.00021297531919682526 -0.0003822028008964789 0.00021297531919682526 0.004837600942417252 9.357470532172862e-05 -0.0003822028008964789 9.357470532172862e-05 -0.0033511781506514564" pbc="T T T"
O        8.45462484      11.61454047       9.33934476  T       0.00000000       0.00000000       0.00000000       0.00341274      -0.00929603       0.00744062
O       11.45929790       5.39331923       9.37414275  T       0.00000000       0.00000000       0.00000000      -0.00396187       0.00920580       0.00238233
O       11.50416815       1.65950132      10.60481738  T       0.00000000       0.00000000       0.00000000       0.01007143       0.00657353      -0.00344865
O       11.45108614      11.56366348       9.39794347  T       0.00000000       0.00000000       0.00000000      -0.00562176      -0.03530706      -0.00328353
O        8.44869335       7.80158761      10.56459494  T       0.00000000       0.00000000       0.00000000      -0.01604988      -0.01319265       0.01710486
O        5.26626566      11.56524928       9.35148447  T       0.00000000       0.00000000       0.00000000      -0.01095300       0.01300057       0.01902429
O        5.27214678       7.77689204      10.61496081  T       0.00000000       0.00000000       0.00000000       0.00690100      -0.00265157      -0.00093819
O        8.39120039       5.46071094       9.35153816  T       0.00000000       0.00000000       0.00000000       0.01412491      -0.01691687       0.01758500
O       11.47647385       7.79414752      10.59214176  T       0.00000000       0.00000000       0.00000000       0.00261582       0.01521495      -0.00639683
O        2.24443471       5.45636131       9.33912175  T       0.00000000       0.00000000       0.00000000       0.01443945       0.00830097      -0.00778607
O        2.23245202       1.70205946      10.55286563  T       0.00000000       0.00000000       0.00000000       0.00119647      -0.01816010       0.00269786
O        2.26939404      11.61620115       9.36009862  T       0.00000000       0.00000000       0.00000000       0.00387416       0.00557960       0.00467801
O        5.29927190       5.42034081       9.38569154  T       0.00000000       0.00000000       0.00000000      -0.00880098      -0.01912930       0.00614109
O        5.35760710       1.65961490      10.56549180  T       0.00000000       0.00000000       0.00000000      -0.00102604      -0.00162079      -0.01754608
O        2.22134808       7.84169408      10.54677306  T       0.00000000       0.00000000       0.00000000       0.03492392      -0.00397972       0.01052805
O        8.37805360       1.69212187      10.53340443  T       0.00000000       0.00000000       0.00000000       0.00817317       0.00526738      -0.02731930
Pd       5.53656316       9.22760527       1.50000000  F       0.00000000       0.00000000       0.00000000       0.00080675      -0.00947032      -0.23047025
Pd       6.10773558       7.45906608       7.38178812  T       0.00000000       0.00000000       0.00000000       0.00659984       0.00084001      -0.00671499
Pd       4.28815433       6.78245218       5.40241719  F       0.00000000       0.00000000       0.00000000      -0.05422347       0.03978589       0.20645122
Pd       6.15173685       7.38208422       3.44535000  F       0.00000000       0.00000000       0.00000000      -0.00800156       0.00158769       0.04830645
Pd       7.31489143       3.65615554       7.34661138  T       0.00000000       0.00000000       0.00000000       0.02127126       0.00516869       0.00249367
Pd       5.51948843       3.08419342       5.37702261  F       0.00000000       0.00000000       0.00000000      -0.07104140       0.03757967       0.23156928
Pd       6.76691053       5.53656316       1.50000000  F       0.00000000       0.00000000       0.00000000       0.00163958       0.00551127      -0.23226648
Pd       7.38208422       9.84277895       3.44535000  F       0.00000000       0.00000000       0.00000000       0.07896171       0.01865766       0.13151578
Pd       7.99725790       7.99725790       1.50000000  F       0.00000000       0.00000000       0.00000000      -0.00307814       0.01257523      -0.23323181
Pd       5.51951598       9.23590192       5.37700272  F       0.00000000       0.00000000       0.00000000      -0.02923668       0.00711333       0.27479088
Pd       8.00616182       7.98477587       5.40628129  F       0.00000000       0.00000000       0.00000000       0.07947980       0.06315212       0.15757408
Pd       6.76691053      11.68830001       1.50000000  F       0.00000000       0.00000000       0.00000000       0.00293227       0.00426628      -0.23083515
Pd       8.61243158       0.00000000       3.44535000  F       0.00000000       0.00000000       0.00000000       0.03963380      -0.05660441       0.12122185
Pd       6.75606179      11.70364973       5.37992114  F       0.00000000       0.00000000       0.00000000       0.05189964      -0.10908460       0.13001764
Pd       8.55481867      -0.01677314       7.40240529  T       0.00000000       0.00000000       0.00000000       0.01103052       0.00374026      -0.00699428
Pd       9.84277895       8.61243158       3.44535000  F       0.00000000       0.00000000       0.00000000      -0.06532976       0.03619059       0.08306967
Pd       7.38208422       3.69104211       3.44535000  F       0.00000000       0.00000000       0.00000000       0.07717486       0.01643436       0.12991332
Pd       3.69104211       8.61243158       3.44535000  F       0.00000000       0.00000000       0.00000000      -0.06873569       0.03174446       0.07674143
Pd       9.81354407       8.63976656       7.54342396  T       0.00000000       0.00000000       0.00000000      -0.01912149      -0.01134063      -0.01698995
Pd       9.22760527      10.45795264       1.50000000  F       0.00000000       0.00000000       0.00000000      -0.00683605      -0.00209530      -0.22809505
Pd       7.33078372       9.80483805       7.37198552  T       0.00000000       0.00000000       0.00000000      -0.00455337       0.00795184       0.00438821
Pd       1.84552105       7.99725790       1.50000000  F       0.00000000       0.00000000       0.00000000      -0.00241759       0.01197957      -0.23335549
Pd      11.68830001       9.22760527       1.50000000  F       0.00000000       0.00000000       0.00000000      -0.00058181      -0.00935845      -0.23174462
Pd       0.60431863      11.70356305       5.37989931  F       0.00000000       0.00000000       0.00000000       0.03146513      -0.05697694       0.15272694
Pd       8.61243158       6.15173685       3.44535000  F       0.00000000       0.00000000       0.00000000       0.03866610      -0.04865837       0.11685029
Pd       6.75605293       5.55187564       5.37990856  F       0.00000000       0.00000000       0.00000000       0.02451467      -0.05874896       0.12490467
Pd       8.54826353       6.15538784       7.40955915  T       0.00000000       0.00000000       0.00000000      -0.00829481      -0.00515296      -0.02522330
Pd       7.99725790       1.84552105       1.50000000  F       0.00000000       0.00000000       0.00000000      -0.00283134       0.01243175      -0.23325935
Pd       9.84277895       2.46069474       3.44535000  F       0.00000000       0.00000000       0.00000000      -0.06854534       0.03894908       0.09579847
Pd       8.00617313       1.83308050       5.40627808  F       0.00000000       0.00000000       0.00000000       0.09078858       0.01288219       0.08825131
Pd       9.80616316       2.46780304       7.51737886  T       0.00000000       0.00000000       0.00000000      -0.00026532      -0.00064391      -0.00181724
Pd       9.22760527       4.30621579       1.50000000  F       0.00000000       0.00000000       0.00000000      -0.00549247      -0.00252731      -0.22783464
Pd       4.92138948       4.92138948       3.44535000  F       0.00000000       0.00000000       0.00000000      -0.07959304       0.02080892       0.05594731
Pd       9.23914659       4.30042743       5.43541126  T       0.00000000       0.00000000       0.00000000      -0.01298367      -0.00273959       0.00184375
Pd       4.92152974       4.97590661       7.40583278  T       0.00000000       0.00000000       0.00000000       0.00442058      -0.00088313      -0.00415439
Pd      10.45795264       6.76691053       1.50000000  F       0.00000000       0.00000000       0.00000000       0.00311699      -0.00552343      -0.23171396
Pd       0.00000000       7.38208422       3.44535000  F       0.00000000       0.00000000       0.00000000      -0.00905333       0.00202024       0.04684184
Pd      10.43991375       6.78245558       5.40242713  F       0.00000000       0.00000000       0.00000000      -0.07278274       0.01962891       0.21595189
Pd      12.25179438       7.46565516       7.38819353  T       0.00000000       0.00000000       0.00000000      -0.00376935      -0.01031394      -0.00343903
Pd       4.92138948      11.07312632       3.44535000  F       0.00000000       0.00000000       0.00000000      -0.09118200       0.02471958       0.06306339
Pd       1.23034737       9.84277895       3.44535000  F       0.00000000       0.00000000       0.00000000       0.07545442       0.01047423       0.12072384
Pd      11.67120661       9.23591801       5.37701028  F       0.00000000       0.00000000       0.00000000      -0.03537417       0.02688362       0.28580952
Pd       1.18486523       9.80231128       7.35698937  T       0.00000000       0.00000000       0.00000000      -0.00345488      -0.00166092      -0.00299650
Pd       0.61517368      11.68830001       1.50000000  F       0.00000000       0.00000000       0.00000000       0.00203336       0.00488737      -0.23381118
Pd       2.46069474       0.00000000       3.44535000  F       0.00000000       0.00000000       0.00000000       0.03896508      -0.04729164       0.11935664
Pd       2.39517154      -0.00349714       7.40673239  T       0.00000000       0.00000000       0.00000000      -0.00516090      -0.00746332       0.00184955
Pd       9.24079053      10.44437537       5.43803698  T       0.00000000       0.00000000       0.00000000      -0.00637558       0.00906751      -0.00090213
Pd       3.68236462       8.62992877       7.54704426  T       0.00000000       0.00000000       0.00000000       0.00310470       0.01152183       0.00721546
Pd       4.30621579       0.61517368       1.50000000  F       0.00000000       0.00000000       0.00000000       0.00319563      -0.00675045      -0.23186202
Pd      11.07312632       4.92138948       3.44535000  F       0.00000000       0.00000000       0.00000000      -0.08469222       0.02070501       0.05731403
Pd       4.30621579       6.76691053       1.50000000  F       0.00000000       0.00000000       0.00000000       0.00386502      -0.00504395      -0.23162263
Pd       3.66249910       2.47591914       7.51471832  T       0.00000000       0.00000000       0.00000000      -0.00782231      -0.01174886       0.00046852
Pd       2.39795098       6.15789122       7.39816762  T       0.00000000       0.00000000       0.00000000      -0.01539518       0.00141654       0.01963789
Pd       0.60433818       5.55187436       5.37993065  F       0.00000000       0.00000000       0.00000000       0.01016608      -0.04526343       0.12712731
Pd       2.46069474       6.15173685       3.44535000  F       0.00000000       0.00000000       0.00000000       0.03620187      -0.04515739       0.11174319
Pd       0.61517368       5.53656316       1.50000000  F       0.00000000       0.00000000       0.00000000       0.00215060       0.00473793      -0.23282030
Pd       1.17153992       3.65532757       7.34537665  T       0.00000000       0.00000000       0.00000000       0.01258713      -0.00340507      -0.00046595
Pd      11.67123156       3.08419612       5.37703229  F       0.00000000       0.00000000       0.00000000      -0.06278484       0.00076256       0.24752720
Pd       6.84477555       6.69562833       9.92930303  T       0.00000000       0.00000000       0.00000000       0.02745258       0.02225343       0.01548518
Pd       1.23034737       3.69104211       3.44535000  F       0.00000000       0.00000000       0.00000000       0.07667373       0.01221821       0.12448895
Pd      12.25311887       1.31178046       7.39773712  T       0.00000000       0.00000000       0.00000000       0.02020940      -0.00069122      -0.00332617
Pd      10.43990395       0.63072067       5.40242717  F       0.00000000       0.00000000       0.00000000      -0.04683840      -0.00971955       0.20381361
Pd       0.00000000       1.23034737       3.44535000  F       0.00000000       0.00000000       0.00000000      -0.00404742       0.00404414       0.05375359
Pd       1.84552105       1.84552105       1.50000000  F       0.00000000       0.00000000       0.00000000      -0.00277173       0.01243302      -0.23390427
Pd      10.45795264       0.61517368       1.50000000  F       0.00000000       0.00000000       0.00000000       0.00220593      -0.00599986      -0.23246190
Pd      11.09904097      11.12409726       7.40957870  T       0.00000000       0.00000000       0.00000000      -0.01054939      -0.01322125       0.01337299
Pd       3.08518350      10.44513206       5.43402790  T       0.00000000       0.00000000       0.00000000       0.01516585       0.01227173       0.01542512
Pd       3.69104211       2.46069474       3.44535000  F       0.00000000       0.00000000       0.00000000      -0.06507827       0.03690994       0.09144141
Pd       1.85442396       1.83305046       5.40626716  F       0.00000000       0.00000000       0.00000000       0.06124654       0.01317254       0.09509589
Pd      11.68830001       3.07586842       1.50000000  F       0.00000000       0.00000000       0.00000000      -0.00031529      -0.00910614      -0.23202389
Pd       0.70928871       0.51793740       9.93511661  T       0.00000000       0.00000000       0.00000000       0.00876726       0.00059008       0.01005834
Pd       2.26318819       3.48326880       9.76393448  T       0.00000000       0.00000000       0.00000000      -0.00144759      -0.01469168      -0.00008119
Pd       3.77388946       6.69090822       9.91924513  T       0.00000000       0.00000000       0.00000000      -0.02535312      -0.02465739      -0.01789567
Pd       6.15173685       1.23034737       3.44535000  F       0.00000000       0.00000000       0.00000000      -0.00122871       0.00355041       0.04548804
Pd       4.28818081       0.63072761       5.40241929  F       0.00000000       0.00000000       0.00000000      -0.09326325      -0.00772866       0.17216702
Pd       6.10321786       1.30177081       7.37270396  T       0.00000000       0.00000000       0.00000000      -0.00693238      -0.00091235       0.01338178
Pd       5.53656316       3.07586842       1.50000000  F       0.00000000       0.00000000       0.00000000      -0.00054834      -0.00995620      -0.23247258
Pd       1.85444455       7.98478761       5.40627529  F       0.00000000       0.00000000       0.00000000       0.06829118       0.03506978       0.10602435
Pd       5.35508828       3.40281280       9.68802683  T       0.00000000       0.00000000       0.00000000       0.00692510      -0.00895516       0.01276475
Pd       3.07586842      10.45795264       1.50000000  F       0.00000000       0.00000000       0.00000000      -0.00552275      -0.00168416      -0.22730301
Pd       3.07586842       4.30621579       1.50000000  F       0.00000000       0.00000000       0.00000000      -0.00596909      -0.00248880      -0.22807555
Pd       3.08850727       4.30065192       5.43281019  T       0.00000000       0.00000000       0.00000000      -0.00545058      -0.00876767       0.00294220
Pd      11.07529596       4.96231288       7.39957313  T       0.00000000       0.00000000       0.00000000      -0.00508893       0.01094718      -0.00402440
Pd      11.07312632      11.07312632       3.44535000  F       0.00000000       0.00000000       0.00000000      -0.08972546       0.02118437       0.06872309
Pd       9.95673209       0.56202975       9.92865135  T       0.00000000       0.00000000       0.00000000       0.02308096       0.03219666       0.01214732
Pd       6.86079743       0.51069671       9.89320424  T       0.00000000       0.00000000       0.00000000       0.01863070       0.02704321       0.00854536
Pd       8.54427967       9.62389958       9.83855994  T       0.00000000       0.00000000       0.00000000       0.01352177       0.00985785      -0.00509968
Pd       0.69368304       6.67313814       9.91270447  T       0.00000000       0.00000000       0.00000000       0.01228616      -0.04386354      -0.01672815
Pd       5.21960713       9.56870424       9.80938878  T       0.00000000       0.00000000       0.00000000       0.00510118      -0.01506701      -0.01030951
Pd      11.50471154       3.38660416       9.69872509  T       0.00000000       0.00000000       0.00000000       0.01086928       0.00143525      -0.00533416
Pd       8.40486050       3.48251021       9.76560861  T       0.00000000       0.00000000       0.00000000       0.01581256      -0.00042274       0.00002033
Pd       9.95030919       6.67317361       9.91457121  T       0.00000000       0.00000000       0.00000000       0.04062513      -0.00617456      -0.00989777
Pd       3.79334708       0.56953281       9.91558770  T       0.00000000       0.00000000       0.00000000       0.01313204      -0.00388528       0.01186348
Pd       2.29236831       9.63580711       9.77853489  T       0.00000000       0.00000000       0.00000000       0.00835234      -0.01347870       0.00170062
Pd       4.92582578      11.10717333       7.39583014  T       0.00000000       0.00000000       0.00000000      -0.01392687       0.00773031      -0.00824262
Pd      11.45407409       9.54927460       9.72763430  T       0.00000000       0.00000000       0.00000000       0.00775629       0.00919424      -0.01050309
C        8.90271198       1.45291701      13.60777326  T       0.00000000       0.00000000       0.00000000       0.02514434       0.00715010      -0.00137478
O        9.40158031       0.42439331      13.50286464  T       0.00000000       0.00000000       0.00000000       0.00119830       0.00316376       0.00160898
O        6.85325520       9.89108276      11.06185363  T       0.00000000       0.00000000       0.00000000       0.00213557       0.00595571       0.00525757
C        6.78951583      10.57146841      12.30363228  T       0.00000000       0.00000000       0.00000000      -0.02093278       0.00007093       0.00214149
H        7.69056767      10.33035876      12.89613416  T       0.00000000       0.00000000       0.00000000       0.00123969       0.01390923       0.00566109
H        6.72670322      11.67491887      12.16880178  T       0.00000000       0.00000000       0.00000000       0.01849693      -0.00600445       0.00028570
H        5.89344598      10.23369577      12.85749118  T       0.00000000       0.00000000       0.00000000       0.00423450      -0.00003337       0.01815093
