119
Lattice="12.303473692417112 0.0 0.0 0.0 12.303473692417114 0.0 0.0 0.0 29.165420746594243" Properties=species:S:1:pos:R:3:move_mask:L:1:momenta:R:3:forces:R:3 idx=9382 E_MACE=-600.3061039531242 d_min=2.1252854679951523 d_reactive=4.164272385483208 rank=5799 dE_rel_meV=1359.3851116884252 converged=T energy=-600.3061039531242 stress="0.005388431388341505 0.00042485655062084426 -0.0001404904039446699 0.00042485655062084426 0.004485726917939023 6.0254757802288425e-05 -0.0001404904039446699 6.0254757802288425e-05 -0.003342567650579751" pbc="T T T"
O        8.50079168      11.62052593       9.34199049  T       0.00000000       0.00000000       0.00000000      -0.00955888      -0.00319293      -0.00182747
O       11.52876839       5.43217234       9.34994557  T       0.00000000       0.00000000       0.00000000       0.00770319      -0.00620278       0.00156865
O       11.61767029       1.63403713      10.58008123  T       0.00000000       0.00000000       0.00000000      -0.01872301      -0.02464035      -0.00348374
O       11.51365718      11.57416695       9.36090462  T       0.00000000       0.00000000       0.00000000      -0.00898655       0.01099423       0.01497694
O        8.45015448       7.86840104      10.53542303  T       0.00000000       0.00000000       0.00000000      -0.00044630      -0.02016915      -0.00318207
O        5.36209586      11.55112799       9.35885124  T       0.00000000       0.00000000       0.00000000      -0.01335275       0.00603366       0.00953296
O        5.39001789       7.81687948      10.59142326  T       0.00000000       0.00000000       0.00000000      -0.01825907      -0.01037389      -0.00405970
O        8.45649235       5.48743073       9.35077310  T       0.00000000       0.00000000       0.00000000       0.00412474      -0.00674048      -0.00506618
O       11.56356730       7.83460987      10.55937159  T       0.00000000       0.00000000       0.00000000      -0.01008073      -0.02622667       0.00144551
O        2.32199718       5.45518910       9.36832798  T       0.00000000       0.00000000       0.00000000       0.00791471      -0.00681278      -0.00016606
O        2.31677745       1.67926358      10.53934904  T       0.00000000       0.00000000       0.00000000      -0.00688174       0.00921075       0.02827710
O        2.34207880      11.59663101       9.34277849  T       0.00000000       0.00000000       0.00000000       0.01827135      -0.00030148       0.00176269
O        5.36475149       5.41589896       9.38339420  T       0.00000000       0.00000000       0.00000000      -0.00748610       0.01057536       0.00138646
O        5.41846382       1.65295768      10.55652439  T       0.00000000       0.00000000       0.00000000      -0.01476118       0.01083271       0.02209083
O        2.30497708       7.84463204      10.55839563  T       0.00000000       0.00000000       0.00000000       0.01203830      -0.00457604      -0.00065016
O        8.40531350       1.66637425      10.53454613  T       0.00000000       0.00000000       0.00000000       0.02925640       0.00541675       0.01297659
Pd       5.53656316       9.22760527       1.50000000  F       0.00000000       0.00000000       0.00000000       0.00008419      -0.00965571      -0.23202446
Pd       6.10987695       7.45622614       7.38845110  T       0.00000000       0.00000000       0.00000000       0.00997319       0.01275499       0.00034360
Pd       4.28815433       6.78245218       5.40241719  F       0.00000000       0.00000000       0.00000000      -0.05202542      -0.03332489       0.18588886
Pd       6.15173685       7.38208422       3.44535000  F       0.00000000       0.00000000       0.00000000      -0.00338481       0.00973117       0.04895502
Pd       7.34106505       3.64625055       7.38952793  T       0.00000000       0.00000000       0.00000000       0.00540073      -0.00340942       0.00510155
Pd       5.51948843       3.08419342       5.37702261  F       0.00000000       0.00000000       0.00000000      -0.03093035       0.04509858       0.27912539
Pd       6.76691053       5.53656316       1.50000000  F       0.00000000       0.00000000       0.00000000       0.00317393       0.00556678      -0.23361792
Pd       7.38208422       9.84277895       3.44535000  F       0.00000000       0.00000000       0.00000000       0.07171914       0.01229551       0.12461924
Pd       7.99725790       7.99725790       1.50000000  F       0.00000000       0.00000000       0.00000000      -0.00226949       0.01225372      -0.23397213
Pd       5.51951598       9.23590192       5.37700272  F       0.00000000       0.00000000       0.00000000      -0.02786481       0.00164074       0.24512535
Pd       8.00616182       7.98477587       5.40628129  F       0.00000000       0.00000000       0.00000000       0.06121880       0.00554781       0.07449103
Pd       6.76691053      11.68830001       1.50000000  F       0.00000000       0.00000000       0.00000000       0.00207938       0.00535443      -0.23286452
Pd       8.61243158       0.00000000       3.44535000  F       0.00000000       0.00000000       0.00000000       0.03715267      -0.05313228       0.10701037
Pd       6.75606179      11.70364973       5.37992114  F       0.00000000       0.00000000       0.00000000       0.04557030      -0.06193801       0.13204026
Pd       8.55973787       0.00337758       7.39612174  T       0.00000000       0.00000000       0.00000000       0.00094679       0.00559543       0.01652321
Pd       9.84277895       8.61243158       3.44535000  F       0.00000000       0.00000000       0.00000000      -0.06719275       0.03277182       0.09103263
Pd       7.38208422       3.69104211       3.44535000  F       0.00000000       0.00000000       0.00000000       0.07076882       0.01492037       0.12580414
Pd       3.69104211       8.61243158       3.44535000  F       0.00000000       0.00000000       0.00000000      -0.06934234       0.03326355       0.08864775
Pd       9.82130154       8.61749229       7.50239128  T       0.00000000       0.00000000       0.00000000       0.00761736       0.00659119      -0.01020719
Pd       9.22760527      10.45795264       1.50000000  F       0.00000000       0.00000000       0.00000000      -0.00551186      -0.00172318      -0.22736814
Pd       7.33141354       9.80279539       7.35454091  T       0.00000000       0.00000000       0.00000000      -0.00085165       0.01336650      -0.00163533
Pd       1.84552105       7.99725790       1.50000000  F       0.00000000       0.00000000       0.00000000      -0.00312620       0.01287689      -0.23483448
Pd      11.68830001       9.22760527       1.50000000  F       0.00000000       0.00000000       0.00000000      -0.00027120      -0.01007999      -0.23173459
Pd       0.60431863      11.70356305       5.37989931  F       0.00000000       0.00000000       0.00000000       0.05375592      -0.07160587       0.11744301
Pd       8.61243158       6.15173685       3.44535000  F       0.00000000       0.00000000       0.00000000       0.03712451      -0.05804902       0.12227683
Pd       6.75605293       5.55187564       5.37990856  F       0.00000000       0.00000000       0.00000000       0.04890368      -0.10303893       0.16169818
Pd       8.55020257       6.13558584       7.39979557  T       0.00000000       0.00000000       0.00000000       0.00014128      -0.01189948      -0.01008688
Pd       7.99725790       1.84552105       1.50000000  F       0.00000000       0.00000000       0.00000000      -0.00186886       0.01196989      -0.23368015
Pd       9.84277895       2.46069474       3.44535000  F       0.00000000       0.00000000       0.00000000      -0.07023161       0.03598522       0.08805433
Pd       8.00617313       1.83308050       5.40627808  F       0.00000000       0.00000000       0.00000000       0.06912857       0.05901819       0.12348191
Pd       9.83012590       2.48209437       7.52281413  T       0.00000000       0.00000000       0.00000000      -0.00647690      -0.00158760      -0.00464808
Pd       9.22760527       4.30621579       1.50000000  F       0.00000000       0.00000000       0.00000000      -0.00429861      -0.00154851      -0.22573986
Pd       4.92138948       4.92138948       3.44535000  F       0.00000000       0.00000000       0.00000000      -0.09318367       0.01879080       0.07960518
Pd       9.23789579       4.29265333       5.43730983  T       0.00000000       0.00000000       0.00000000      -0.01203369      -0.00267086       0.00790881
Pd       4.93928969       4.96381394       7.40605175  T       0.00000000       0.00000000       0.00000000      -0.00848709       0.00685379      -0.00097257
Pd      10.45795264       6.76691053       1.50000000  F       0.00000000       0.00000000       0.00000000       0.00310069      -0.00679101      -0.23052745
Pd       0.00000000       7.38208422       3.44535000  F       0.00000000       0.00000000       0.00000000      -0.00396436       0.00940767       0.04861493
Pd      10.43991375       6.78245558       5.40242713  F       0.00000000       0.00000000       0.00000000      -0.05168493      -0.01309115       0.16959838
Pd      12.27041210       7.45594952       7.38273170  T       0.00000000       0.00000000       0.00000000      -0.00924822       0.00996500       0.00785964
Pd       4.92138948      11.07312632       3.44535000  F       0.00000000       0.00000000       0.00000000      -0.08567768       0.02545767       0.06288247
Pd       1.23034737       9.84277895       3.44535000  F       0.00000000       0.00000000       0.00000000       0.06924563       0.01293972       0.12431000
Pd      11.67120661       9.23591801       5.37701028  F       0.00000000       0.00000000       0.00000000      -0.02500313       0.01742472       0.24490441
Pd       1.18235686       9.80217257       7.35813051  T       0.00000000       0.00000000       0.00000000       0.00641959       0.00553838      -0.00497337
Pd       0.61517368      11.68830001       1.50000000  F       0.00000000       0.00000000       0.00000000       0.00168714       0.00545490      -0.23321226
Pd       2.46069474       0.00000000       3.44535000  F       0.00000000       0.00000000       0.00000000       0.03835509      -0.05530437       0.11478009
Pd       2.40406401      -0.00875996       7.39934656  T       0.00000000       0.00000000       0.00000000       0.00586018       0.01162974       0.00477664
Pd       9.23606826      10.44970545       5.43291798  T       0.00000000       0.00000000       0.00000000       0.01635561       0.00652475      -0.00772595
Pd       3.66976006       8.60610397       7.50895365  T       0.00000000       0.00000000       0.00000000      -0.00483760       0.01133271      -0.00021556
Pd       4.30621579       0.61517368       1.50000000  F       0.00000000       0.00000000       0.00000000       0.00421774      -0.00632306      -0.23244181
Pd      11.07312632       4.92138948       3.44535000  F       0.00000000       0.00000000       0.00000000      -0.08859005       0.02655718       0.06233359
Pd       4.30621579       6.76691053       1.50000000  F       0.00000000       0.00000000       0.00000000       0.00257215      -0.00602493      -0.23204715
Pd       3.65772979       2.47338203       7.51441251  T       0.00000000       0.00000000       0.00000000       0.00509354       0.01497290       0.00346927
Pd       2.40735304       6.13240166       7.41220108  T       0.00000000       0.00000000       0.00000000       0.00341840      -0.00627744       0.01177521
Pd       0.60433818       5.55187436       5.37993065  F       0.00000000       0.00000000       0.00000000       0.06296916      -0.10047544       0.17424854
Pd       2.46069474       6.15173685       3.44535000  F       0.00000000       0.00000000       0.00000000       0.03907510      -0.06606009       0.13292744
Pd       0.61517368       5.53656316       1.50000000  F       0.00000000       0.00000000       0.00000000       0.00166366       0.00532253      -0.23294824
Pd       1.14896194       3.64956407       7.38995141  T       0.00000000       0.00000000       0.00000000       0.01991528       0.00130112      -0.01317340
Pd      11.67123156       3.08419612       5.37703229  F       0.00000000       0.00000000       0.00000000      -0.01433092       0.01181766       0.28355958
Pd       6.91120551       6.69330342       9.92316053  T       0.00000000       0.00000000       0.00000000      -0.00850985      -0.00160814       0.00620166
Pd       1.23034737       3.69104211       3.44535000  F       0.00000000       0.00000000       0.00000000       0.08094673       0.01833383       0.12513066
Pd      12.25755477       1.30233243       7.38689665  T       0.00000000       0.00000000       0.00000000       0.00265168       0.00241900      -0.00657575
Pd      10.43990395       0.63072067       5.40242717  F       0.00000000       0.00000000       0.00000000      -0.04009045       0.02153722       0.16834940
Pd       0.00000000       1.23034737       3.44535000  F       0.00000000       0.00000000       0.00000000      -0.00197301       0.00529172       0.04802152
Pd       1.84552105       1.84552105       1.50000000  F       0.00000000       0.00000000       0.00000000      -0.00186954       0.01216365      -0.23292325
Pd      10.45795264       0.61517368       1.50000000  F       0.00000000       0.00000000       0.00000000       0.00307117      -0.00515500      -0.23180796
Pd      11.08285316      11.11794046       7.39287083  T       0.00000000       0.00000000       0.00000000       0.00084996       0.00155942       0.00742250
Pd       3.08576327      10.44703700       5.43363446  T       0.00000000       0.00000000       0.00000000       0.00857809       0.00977261      -0.00380667
Pd       3.69104211       2.46069474       3.44535000  F       0.00000000       0.00000000       0.00000000      -0.07600953       0.04852201       0.09602940
Pd       1.85442396       1.83305046       5.40626716  F       0.00000000       0.00000000       0.00000000       0.02940060       0.05398317       0.14737505
Pd      11.68830001       3.07586842       1.50000000  F       0.00000000       0.00000000       0.00000000      -0.00072866      -0.00973378      -0.23145893
Pd       0.79023469       0.50707481       9.90228393  T       0.00000000       0.00000000       0.00000000      -0.02582195      -0.02194117      -0.01813982
Pd       2.32188329       3.47627764       9.78125979  T       0.00000000       0.00000000       0.00000000      -0.01078904       0.01505132      -0.00186989
Pd       3.85491208       6.69814219       9.93394641  T       0.00000000       0.00000000       0.00000000       0.02724127       0.02040108       0.00429663
Pd       6.15173685       1.23034737       3.44535000  F       0.00000000       0.00000000       0.00000000      -0.00538558       0.00854966       0.05388169
Pd       4.28818081       0.63072761       5.40241929  F       0.00000000       0.00000000       0.00000000      -0.05977029      -0.00043673       0.16257141
Pd       6.10319537       1.31171933       7.37667724  T       0.00000000       0.00000000       0.00000000      -0.00204881      -0.01337511       0.00578683
Pd       5.53656316       3.07586842       1.50000000  F       0.00000000       0.00000000       0.00000000      -0.00069266      -0.01016297      -0.23205690
Pd       1.85444455       7.98478761       5.40627529  F       0.00000000       0.00000000       0.00000000       0.08128487      -0.00947432       0.08591270
Pd       5.43478286       3.40081456       9.68454839  T       0.00000000       0.00000000       0.00000000      -0.00142185      -0.00958667       0.00958357
Pd       3.07586842      10.45795264       1.50000000  F       0.00000000       0.00000000       0.00000000      -0.00485775      -0.00197733      -0.22753422
Pd       3.07586842       4.30621579       1.50000000  F       0.00000000       0.00000000       0.00000000      -0.00489104      -0.00189510      -0.22753340
Pd       3.08219158       4.29554782       5.44266443  T       0.00000000       0.00000000       0.00000000      -0.00445022       0.00593841       0.00253468
Pd      11.08111993       4.96881615       7.40276170  T       0.00000000       0.00000000       0.00000000      -0.00277223       0.00275272       0.01103988
Pd      11.07312632      11.07312632       3.44535000  F       0.00000000       0.00000000       0.00000000      -0.08519783       0.02417881       0.06546564
Pd      10.02233741       0.58202061       9.90997113  T       0.00000000       0.00000000       0.00000000       0.00692202       0.02223553       0.01774108
Pd       6.92001274       0.50937735       9.88383900  T       0.00000000       0.00000000       0.00000000       0.01016314      -0.03240028      -0.01857685
Pd       8.49610438       9.64942014       9.75354361  T       0.00000000       0.00000000       0.00000000       0.01269355       0.00909388       0.00243722
Pd       0.77528270       6.68475468       9.91623349  T       0.00000000       0.00000000       0.00000000      -0.00760634      -0.00500101      -0.00195628
Pd       5.39097534       9.54209005       9.68321701  T       0.00000000       0.00000000       0.00000000       0.00301130       0.01189531      -0.00044950
Pd      11.63540747       3.44159627       9.80991493  T       0.00000000       0.00000000       0.00000000       0.00117857       0.01915421      -0.00220959
Pd       8.42624361       3.50697570       9.83123328  T       0.00000000       0.00000000       0.00000000      -0.00054068      -0.00514778       0.01379373
Pd      10.01190897       6.74706188       9.87060821  T       0.00000000       0.00000000       0.00000000       0.01272917       0.02501349      -0.00532859
Pd       3.87007660       0.54759064       9.90233471  T       0.00000000       0.00000000       0.00000000       0.00919969       0.00455959      -0.01485445
Pd       2.34910931       9.62441071       9.76303331  T       0.00000000       0.00000000       0.00000000       0.00923328       0.00567661       0.00170086
Pd       4.92906253      11.10804162       7.39506143  T       0.00000000       0.00000000       0.00000000       0.00218226      -0.00005011      -0.02326589
Pd      11.56003737       9.56183137       9.66478690  T       0.00000000       0.00000000       0.00000000       0.00230914       0.01243197       0.01718685
C       12.93775247       1.76641796      13.49475130  T       0.00000000       0.00000000       0.00000000       0.01464436      -0.02250785      -0.02437739
O       13.00944525       2.91091262      13.43890247  T       0.00000000       0.00000000       0.00000000       0.02228341       0.00700105       0.01098480
O       10.04067932       3.68726045      11.20161026  T       0.00000000       0.00000000       0.00000000      -0.00449278      -0.02003998      -0.01244682
C       10.05069470       4.65104261      12.23757070  T       0.00000000       0.00000000       0.00000000       0.00552170      -0.00555940       0.00622723
H       10.97525374       4.54697457      12.83441050  T       0.00000000       0.00000000       0.00000000      -0.01660213      -0.00126090      -0.01029405
H       10.00317243       5.70224896      11.85434474  T       0.00000000       0.00000000       0.00000000       0.00563402       0.02210351      -0.00663147
H        9.17151601       4.48615501      12.88836664  T       0.00000000       0.00000000       0.00000000      -0.01800016      -0.01001580       0.01827497
