119
Lattice="12.303473692417112 0.0 0.0 0.0 12.303473692417114 0.0 0.0 0.0 29.165420746594243" Properties=species:S:1:pos:R:3:move_mask:L:1:momenta:R:3:forces:R:3 idx=8104 E_MACE=-601.4565108884618 d_min=2.0086498024522803 d_reactive=1.3449815801798375 rank=7 dE_rel_meV=208.97817635079718 converged=T energy=-601.4565108884618 stress="0.0058611645982614554 0.00033940777941379133 -4.0073250466936715e-05 0.00033940777941379133 0.005054733656007509 0.00012799677528455404 -4.0073250466936715e-05 0.00012799677528455404 -0.003154970330913864" pbc="T T T"
O        8.48791839      11.62335661       9.34459328  T       0.00000000       0.00000000       0.00000000      -0.00422233       0.00892481       0.03122737
O       11.49934214       5.42456811       9.37043774  T       0.00000000       0.00000000       0.00000000       0.00699830       0.02184537       0.02213361
O       11.55762132       1.67812377      10.57282653  T       0.00000000       0.00000000       0.00000000       0.00642841       0.00829592       0.00623506
O       11.51971702      11.57515937       9.38793738  T       0.00000000       0.00000000       0.00000000      -0.02984516      -0.00105027      -0.00725127
O        8.45223060       7.86062860      10.55962507  T       0.00000000       0.00000000       0.00000000      -0.00466333      -0.00686484      -0.00857447
O        5.35885006      11.59048907       9.35811424  T       0.00000000       0.00000000       0.00000000       0.00230002       0.00460397       0.01055661
O        5.39924758       7.77435984      10.70218807  T       0.00000000       0.00000000       0.00000000       0.00308417      -0.00037049       0.00021098
O        8.45755540       5.48508924       9.35533836  T       0.00000000       0.00000000       0.00000000      -0.00374865       0.01495855       0.00166205
O       11.54837797       7.82121688      10.57762549  T       0.00000000       0.00000000       0.00000000       0.00640418      -0.01435068       0.01407035
O        2.33564886       5.49082023       9.34987816  T       0.00000000       0.00000000       0.00000000      -0.02506309      -0.00489303       0.00978068
O        2.29585017       1.72449301      10.53689933  T       0.00000000       0.00000000       0.00000000       0.00781336       0.00108504      -0.00544494
O        2.33506577      11.63615871       9.35941539  T       0.00000000       0.00000000       0.00000000      -0.01306341      -0.00550745       0.00110948
O        5.34891625       5.43682552       9.39564641  T       0.00000000       0.00000000       0.00000000       0.00441500      -0.01932842      -0.01410523
O        5.42113966       1.68380491      10.57813636  T       0.00000000       0.00000000       0.00000000      -0.00853616       0.01675009       0.00564863
O        2.27556492       7.86307761      10.54778126  T       0.00000000       0.00000000       0.00000000       0.00107581      -0.00669855      -0.00499768
O        8.45887469       1.71174444      10.54260727  T       0.00000000       0.00000000       0.00000000       0.00722084       0.03515635      -0.01487773
Pd       5.53656316       9.22760527       1.50000000  F       0.00000000       0.00000000       0.00000000      -0.00002303      -0.00968651      -0.22989198
Pd       6.11411123       7.46750944       7.39700549  T       0.00000000       0.00000000       0.00000000      -0.00172561      -0.00402413      -0.02079859
Pd       4.28815433       6.78245218       5.40241719  F       0.00000000       0.00000000       0.00000000      -0.00943623       0.03894287       0.21445765
Pd       6.15173685       7.38208422       3.44535000  F       0.00000000       0.00000000       0.00000000      -0.00407538       0.00437831       0.04658011
Pd       7.32761368       3.64969513       7.36127241  T       0.00000000       0.00000000       0.00000000       0.00726181      -0.00391814      -0.01128044
Pd       5.51948843       3.08419342       5.37702261  F       0.00000000       0.00000000       0.00000000      -0.02248205       0.03896362       0.27668366
Pd       6.76691053       5.53656316       1.50000000  F       0.00000000       0.00000000       0.00000000       0.00175916       0.00509759      -0.23395281
Pd       7.38208422       9.84277895       3.44535000  F       0.00000000       0.00000000       0.00000000       0.08490252       0.01968553       0.12663026
Pd       7.99725790       7.99725790       1.50000000  F       0.00000000       0.00000000       0.00000000      -0.00245420       0.01296513      -0.23300934
Pd       5.51951598       9.23590192       5.37700272  F       0.00000000       0.00000000       0.00000000      -0.01985998      -0.01435277       0.31312405
Pd       8.00616182       7.98477587       5.40628129  F       0.00000000       0.00000000       0.00000000       0.05428033       0.04084593       0.12527469
Pd       6.76691053      11.68830001       1.50000000  F       0.00000000       0.00000000       0.00000000       0.00214923       0.00505621      -0.23192641
Pd       8.61243158       0.00000000       3.44535000  F       0.00000000       0.00000000       0.00000000       0.03602469      -0.05495540       0.11785095
Pd       6.75606179      11.70364973       5.37992114  F       0.00000000       0.00000000       0.00000000       0.05967931      -0.09483818       0.14893434
Pd       8.56371079      -0.00812418       7.40141228  T       0.00000000       0.00000000       0.00000000      -0.00670146       0.00999038       0.01238039
Pd       9.84277895       8.61243158       3.44535000  F       0.00000000       0.00000000       0.00000000      -0.06854918       0.03731679       0.08817069
Pd       7.38208422       3.69104211       3.44535000  F       0.00000000       0.00000000       0.00000000       0.07790465       0.01385562       0.13388973
Pd       3.69104211       8.61243158       3.44535000  F       0.00000000       0.00000000       0.00000000      -0.07490834       0.03659108       0.08110066
Pd       9.82499184       8.62512919       7.51906756  T       0.00000000       0.00000000       0.00000000      -0.00244421       0.00471401      -0.01851654
Pd       9.22760527      10.45795264       1.50000000  F       0.00000000       0.00000000       0.00000000      -0.00640049      -0.00236383      -0.22815129
Pd       7.33288476       9.80616405       7.36060518  T       0.00000000       0.00000000       0.00000000       0.01114674       0.00899518       0.00010166
Pd       1.84552105       7.99725790       1.50000000  F       0.00000000       0.00000000       0.00000000      -0.00173416       0.01250887      -0.23384189
Pd      11.68830001       9.22760527       1.50000000  F       0.00000000       0.00000000       0.00000000      -0.00104360      -0.00999945      -0.23348313
Pd       0.60431863      11.70356305       5.37989931  F       0.00000000       0.00000000       0.00000000       0.08154566      -0.07122466       0.17105461
Pd       8.61243158       6.15173685       3.44535000  F       0.00000000       0.00000000       0.00000000       0.03557094      -0.05375055       0.11835409
Pd       6.75605293       5.55187564       5.37990856  F       0.00000000       0.00000000       0.00000000       0.03722632      -0.07307603       0.13914834
Pd       8.54756532       6.15480464       7.40678331  T       0.00000000       0.00000000       0.00000000       0.00520890      -0.00483584      -0.00222733
Pd       7.99725790       1.84552105       1.50000000  F       0.00000000       0.00000000       0.00000000      -0.00269082       0.01232598      -0.23275681
Pd       9.84277895       2.46069474       3.44535000  F       0.00000000       0.00000000       0.00000000      -0.07226783       0.04508393       0.09703121
Pd       8.00617313       1.83308050       5.40627808  F       0.00000000       0.00000000       0.00000000       0.08062282       0.02911976       0.10383413
Pd       9.82579860       2.47288962       7.51487056  T       0.00000000       0.00000000       0.00000000      -0.00407610      -0.01179533      -0.00771018
Pd       9.22760527       4.30621579       1.50000000  F       0.00000000       0.00000000       0.00000000      -0.00444803      -0.00262889      -0.22756305
Pd       4.92138948       4.92138948       3.44535000  F       0.00000000       0.00000000       0.00000000      -0.08168860       0.02211112       0.05991478
Pd       9.23839328       4.30093282       5.43853224  T       0.00000000       0.00000000       0.00000000      -0.01060047      -0.01040648      -0.00783078
Pd       4.94290845       4.98656500       7.41280441  T       0.00000000       0.00000000       0.00000000      -0.00861868      -0.01261691       0.01525072
Pd      10.45795264       6.76691053       1.50000000  F       0.00000000       0.00000000       0.00000000       0.00379156      -0.00592664      -0.23205549
Pd       0.00000000       7.38208422       3.44535000  F       0.00000000       0.00000000       0.00000000      -0.00253473       0.00549397       0.05294964
Pd      10.43991375       6.78245558       5.40242713  F       0.00000000       0.00000000       0.00000000      -0.04564819       0.02560035       0.19878604
Pd      12.26585084       7.46417257       7.38926072  T       0.00000000       0.00000000       0.00000000      -0.00705511      -0.00159930      -0.01555240
Pd       4.92138948      11.07312632       3.44535000  F       0.00000000       0.00000000       0.00000000      -0.09315348       0.02745591       0.06451722
Pd       1.23034737       9.84277895       3.44535000  F       0.00000000       0.00000000       0.00000000       0.08142904       0.01609655       0.13570261
Pd      11.67120661       9.23591801       5.37701028  F       0.00000000       0.00000000       0.00000000      -0.00412707       0.02120832       0.28895390
Pd       1.19075430       9.80569931       7.36011176  T       0.00000000       0.00000000       0.00000000      -0.00154136      -0.00056739       0.00105786
Pd       0.61517368      11.68830001       1.50000000  F       0.00000000       0.00000000       0.00000000       0.00136667       0.00512371      -0.23238698
Pd       2.46069474       0.00000000       3.44535000  F       0.00000000       0.00000000       0.00000000       0.03992199      -0.05840920       0.12635787
Pd       2.42498081      -0.00510311       7.40930032  T       0.00000000       0.00000000       0.00000000      -0.01860070      -0.01138097      -0.00872968
Pd       9.24577231      10.45012807       5.43523986  T       0.00000000       0.00000000       0.00000000      -0.01109476       0.00348723       0.00215375
Pd       3.68219547       8.62341602       7.53327789  T       0.00000000       0.00000000       0.00000000       0.00219057       0.01128324      -0.01268730
Pd       4.30621579       0.61517368       1.50000000  F       0.00000000       0.00000000       0.00000000       0.00377737      -0.00682489      -0.23188968
Pd      11.07312632       4.92138948       3.44535000  F       0.00000000       0.00000000       0.00000000      -0.08995969       0.02148409       0.06335554
Pd       4.30621579       6.76691053       1.50000000  F       0.00000000       0.00000000       0.00000000       0.00336091      -0.00564059      -0.23223305
Pd       3.67748405       2.48653623       7.51193866  T       0.00000000       0.00000000       0.00000000      -0.00164270      -0.00915260      -0.00339857
Pd       2.41309562       6.16009498       7.40383697  T       0.00000000       0.00000000       0.00000000      -0.00251179      -0.00509953      -0.00377598
Pd       0.60433818       5.55187436       5.37993065  F       0.00000000       0.00000000       0.00000000       0.05379800      -0.05207901       0.14785933
Pd       2.46069474       6.15173685       3.44535000  F       0.00000000       0.00000000       0.00000000       0.03469208      -0.05344379       0.11412424
Pd       0.61517368       5.53656316       1.50000000  F       0.00000000       0.00000000       0.00000000       0.00242066       0.00479780      -0.23318213
Pd       1.18133551       3.66295794       7.35779894  T       0.00000000       0.00000000       0.00000000      -0.00422026      -0.01098441      -0.00508889
Pd      11.67123156       3.08419612       5.37703229  F       0.00000000       0.00000000       0.00000000      -0.02892750       0.02459860       0.26736149
Pd       6.90812391       6.70098354       9.93704657  T       0.00000000       0.00000000       0.00000000      -0.00363618      -0.00385507      -0.00804307
Pd       1.23034737       3.69104211       3.44535000  F       0.00000000       0.00000000       0.00000000       0.08176672       0.01545951       0.13522146
Pd      12.27095020       1.30948790       7.38527664  T       0.00000000       0.00000000       0.00000000       0.00552535       0.00217092       0.01418784
Pd      10.43990395       0.63072067       5.40242717  F       0.00000000       0.00000000       0.00000000      -0.02549790       0.00531622       0.19976023
Pd       0.00000000       1.23034737       3.44535000  F       0.00000000       0.00000000       0.00000000      -0.00213291       0.00509975       0.05297127
Pd       1.84552105       1.84552105       1.50000000  F       0.00000000       0.00000000       0.00000000      -0.00247406       0.01297895      -0.23369526
Pd      10.45795264       0.61517368       1.50000000  F       0.00000000       0.00000000       0.00000000       0.00339334      -0.00632516      -0.23326228
Pd      11.09768591      11.12176441       7.41202126  T       0.00000000       0.00000000       0.00000000      -0.01366930       0.00030085      -0.01531065
Pd       3.08964035      10.44515289       5.43952079  T       0.00000000       0.00000000       0.00000000       0.00176013       0.00969892      -0.00262202
Pd       3.69104211       2.46069474       3.44535000  F       0.00000000       0.00000000       0.00000000      -0.07347068       0.04310242       0.09691640
Pd       1.85442396       1.83305046       5.40626716  F       0.00000000       0.00000000       0.00000000       0.09329857       0.03694769       0.10829618
Pd      11.68830001       3.07586842       1.50000000  F       0.00000000       0.00000000       0.00000000      -0.00083831      -0.00971835      -0.23265495
Pd       0.77186627       0.54203533       9.91518841  T       0.00000000       0.00000000       0.00000000       0.00983077       0.01079505      -0.00516152
Pd       2.34258877       3.51222022       9.76066309  T       0.00000000       0.00000000       0.00000000      -0.00523976      -0.01342068      -0.00090456
Pd       3.85170790       6.73692206       9.94362926  T       0.00000000       0.00000000       0.00000000      -0.00559279      -0.00456329      -0.00473713
Pd       6.15173685       1.23034737       3.44535000  F       0.00000000       0.00000000       0.00000000      -0.00340804       0.00520446       0.04853411
Pd       4.28818081       0.63072761       5.40241929  F       0.00000000       0.00000000       0.00000000      -0.05834438      -0.00655248       0.18222699
Pd       6.10318918       1.29540304       7.37877670  T       0.00000000       0.00000000       0.00000000      -0.00059731      -0.01254421       0.00427231
Pd       5.53656316       3.07586842       1.50000000  F       0.00000000       0.00000000       0.00000000      -0.00109140      -0.01042264      -0.23290266
Pd       1.85444455       7.98478761       5.40627529  F       0.00000000       0.00000000       0.00000000       0.05701617       0.02268461       0.07210695
Pd       5.40658005       3.42097778       9.69448890  T       0.00000000       0.00000000       0.00000000      -0.00458452      -0.00178459      -0.00951821
Pd       3.07586842      10.45795264       1.50000000  F       0.00000000       0.00000000       0.00000000      -0.00524801      -0.00210332      -0.22653952
Pd       3.07586842       4.30621579       1.50000000  F       0.00000000       0.00000000       0.00000000      -0.00540164      -0.00315929      -0.22705595
Pd       3.09123223       4.30243689       5.43712373  T       0.00000000       0.00000000       0.00000000      -0.01511879      -0.00669687       0.00145821
Pd      11.07844177       4.97229135       7.40036208  T       0.00000000       0.00000000       0.00000000       0.01036369       0.00486071       0.00185743
Pd      11.07312632      11.07312632       3.44535000  F       0.00000000       0.00000000       0.00000000      -0.08133367       0.02378247       0.05541331
Pd      10.01489251       0.56913733       9.91790149  T       0.00000000       0.00000000       0.00000000       0.01595120      -0.00003953      -0.00114186
Pd       6.92943325       0.54794530       9.89863183  T       0.00000000       0.00000000       0.00000000      -0.00266097      -0.00223533       0.00338845
Pd       8.50373061       9.64444375       9.76460216  T       0.00000000       0.00000000       0.00000000      -0.01086252       0.00644300       0.00272472
Pd       0.75960152       6.68749713       9.91048479  T       0.00000000       0.00000000       0.00000000      -0.00584099      -0.01706785      -0.00657814
Pd       5.39297889       9.62674142       9.97037679  T       0.00000000       0.00000000       0.00000000       0.03349732      -0.00143029      -0.02711753
Pd      11.54662546       3.41508770       9.68522656  T       0.00000000       0.00000000       0.00000000       0.00348404      -0.01340649       0.00124024
Pd       8.48153370       3.50447404       9.76608647  T       0.00000000       0.00000000       0.00000000       0.00924675      -0.02736597       0.00829781
Pd       9.99976145       6.72224655       9.91735826  T       0.00000000       0.00000000       0.00000000      -0.00288221      -0.01417753      -0.00138834
Pd       3.86556415       0.59230301       9.91208831  T       0.00000000       0.00000000       0.00000000      -0.01579997       0.00614436      -0.00540946
Pd       2.32941253       9.65333445       9.76903105  T       0.00000000       0.00000000       0.00000000      -0.00849735       0.00882056       0.01689333
Pd       4.94251307      11.08384350       7.41338879  T       0.00000000       0.00000000       0.00000000      -0.00970219       0.00005563      -0.00753320
Pd      11.55408372       9.56359237       9.70299459  T       0.00000000       0.00000000       0.00000000      -0.00434339       0.00717013      -0.02306094
C        5.29548786      10.26481122      11.87249047  T       0.00000000       0.00000000       0.00000000      -0.02131969      -0.01201784      -0.00234998
O        4.23929539      10.37197781      12.46242105  T       0.00000000       0.00000000       0.00000000       0.02123089       0.00759502      -0.00376451
O        6.52781895      -1.73501528      12.31761284  T       0.00000000       0.00000000       0.00000000       0.01128982      -0.02171863      -0.01480868
C        6.61194815      -1.06010127      13.62609315  T       0.00000000       0.00000000       0.00000000       0.00146773      -0.01246157      -0.02117207
H        5.94729588      -1.55114346      14.35040641  T       0.00000000       0.00000000       0.00000000      -0.00305443      -0.01670532      -0.00756431
H        7.66643875      -1.15815138      13.91115117  T       0.00000000       0.00000000       0.00000000      -0.00200565       0.00827721       0.01043667
H        6.33474269      -0.00358388      13.49519757  T       0.00000000       0.00000000       0.00000000      -0.00585757       0.01471113       0.00168391
