119
Lattice="12.303473692417112 0.0 0.0 0.0 12.303473692417114 0.0 0.0 0.0 29.165420746594243" Properties=species:S:1:pos:R:3:move_mask:L:1:momenta:R:3:forces:R:3 idx=6515 E_MACE=-598.8018279255855 d_min=1.5325134305942716 d_reactive=3.695693280682924 rank=11597 dE_rel_meV=2863.6611392271334 converged=T energy=-598.8018279255855 stress="0.005326755247378573 0.00025852742859668314 -0.0002422856171596398 0.00025852742859668314 0.004758459789468035 -5.489293792393295e-05 -0.0002422856171596398 -5.489293792393295e-05 -0.003348808399590208" pbc="T T T"
O        8.45164550      11.57263117       9.36076714  T       0.00000000       0.00000000       0.00000000       0.00670050      -0.00141648      -0.00632868
O       11.47511203       5.37994617       9.37512649  T       0.00000000       0.00000000       0.00000000       0.01440320       0.01054676       0.00107240
O       11.52221488       1.63102902      10.58528503  T       0.00000000       0.00000000       0.00000000      -0.00056007      -0.00272332       0.00526097
O       11.48652387      11.53109865       9.38754654  T       0.00000000       0.00000000       0.00000000       0.00516640       0.01268485      -0.00253528
O        8.41040478       7.80058562      10.54051914  T       0.00000000       0.00000000       0.00000000       0.01008608       0.01074420       0.01773512
O        5.32917440      11.54301423       9.37911395  T       0.00000000       0.00000000       0.00000000      -0.00249423       0.00516165       0.00247523
O        5.40013824       7.78222285      10.57401256  T       0.00000000       0.00000000       0.00000000      -0.01193370      -0.00333161      -0.00581420
O        8.43463172       5.40680738       9.33466176  T       0.00000000       0.00000000       0.00000000       0.00596925       0.01070821       0.00689675
O       11.46858000       7.77020560      10.59262974  T       0.00000000       0.00000000       0.00000000       0.00755374       0.00626468      -0.00287109
O        2.28605623       5.46863292       9.40127910  T       0.00000000       0.00000000       0.00000000       0.00043393      -0.02594688      -0.01022265
O        2.26838775       1.68895856      10.53397013  T       0.00000000       0.00000000       0.00000000       0.00937594       0.00746635       0.01344772
O        2.30490320      11.63232089       9.32538653  T       0.00000000       0.00000000       0.00000000      -0.00114884       0.01222881      -0.00458742
O        5.30971873       5.39221345       9.36310964  T       0.00000000       0.00000000       0.00000000       0.00841831      -0.00281188      -0.00545636
O        5.38916728       1.64319393      10.57622003  T       0.00000000       0.00000000       0.00000000       0.01094147      -0.00156566       0.00242257
O        2.27597821       7.83287286      10.75717324  T       0.00000000       0.00000000       0.00000000       0.00623134      -0.01684415      -0.00498320
O        8.42301654       1.65304763      10.54991914  T       0.00000000       0.00000000       0.00000000       0.00537906       0.00299231       0.00581606
Pd       5.53656316       9.22760527       1.50000000  F       0.00000000       0.00000000       0.00000000      -0.00081325      -0.00951986      -0.23269920
Pd       6.10715460       7.45815087       7.38805311  T       0.00000000       0.00000000       0.00000000      -0.00313675       0.00055749       0.01086877
Pd       4.28815433       6.78245218       5.40241719  F       0.00000000       0.00000000       0.00000000      -0.07932244      -0.00176061       0.20032493
Pd       6.15173685       7.38208422       3.44535000  F       0.00000000       0.00000000       0.00000000      -0.00102739       0.00612621       0.05078448
Pd       7.32235989       3.64783160       7.34791110  T       0.00000000       0.00000000       0.00000000       0.00351065      -0.00120741       0.00423008
Pd       5.51948843       3.08419342       5.37702261  F       0.00000000       0.00000000       0.00000000      -0.06122209      -0.00218254       0.24187402
Pd       6.76691053       5.53656316       1.50000000  F       0.00000000       0.00000000       0.00000000       0.00273157       0.00495557      -0.23263812
Pd       7.38208422       9.84277895       3.44535000  F       0.00000000       0.00000000       0.00000000       0.07709884       0.01405220       0.12798466
Pd       7.99725790       7.99725790       1.50000000  F       0.00000000       0.00000000       0.00000000      -0.00220560       0.01230493      -0.23203640
Pd       5.51951598       9.23590192       5.37700272  F       0.00000000       0.00000000       0.00000000      -0.03801414       0.00885694       0.25462600
Pd       8.00616182       7.98477587       5.40628129  F       0.00000000       0.00000000       0.00000000       0.06747512       0.01248026       0.07689334
Pd       6.76691053      11.68830001       1.50000000  F       0.00000000       0.00000000       0.00000000       0.00242803       0.00502020      -0.23409056
Pd       8.61243158       0.00000000       3.44535000  F       0.00000000       0.00000000       0.00000000       0.03610623      -0.04927837       0.11734900
Pd       6.75606179      11.70364973       5.37992114  F       0.00000000       0.00000000       0.00000000       0.03880562      -0.05841773       0.15595735
Pd       8.55685145      -0.01304929       7.41488119  T       0.00000000       0.00000000       0.00000000      -0.00514664      -0.00048424      -0.00158395
Pd       9.84277895       8.61243158       3.44535000  F       0.00000000       0.00000000       0.00000000      -0.06728074       0.03990183       0.09239024
Pd       7.38208422       3.69104211       3.44535000  F       0.00000000       0.00000000       0.00000000       0.06914640       0.01159865       0.11965666
Pd       3.69104211       8.61243158       3.44535000  F       0.00000000       0.00000000       0.00000000      -0.06511399       0.03717964       0.08399244
Pd       9.81964911       8.60823664       7.50208526  T       0.00000000       0.00000000       0.00000000      -0.00132944       0.00972328       0.00185127
Pd       9.22760527      10.45795264       1.50000000  F       0.00000000       0.00000000       0.00000000      -0.00578327      -0.00294070      -0.22763392
Pd       7.33087582       9.80494464       7.35060262  T       0.00000000       0.00000000       0.00000000       0.00147253      -0.00141583       0.00332908
Pd       1.84552105       7.99725790       1.50000000  F       0.00000000       0.00000000       0.00000000      -0.00210371       0.01237694      -0.23438846
Pd      11.68830001       9.22760527       1.50000000  F       0.00000000       0.00000000       0.00000000      -0.00044028      -0.00977608      -0.23302095
Pd       0.60431863      11.70356305       5.37989931  F       0.00000000       0.00000000       0.00000000       0.01795691      -0.08263366       0.14011672
Pd       8.61243158       6.15173685       3.44535000  F       0.00000000       0.00000000       0.00000000       0.03386423      -0.04761481       0.10985574
Pd       6.75605293       5.55187564       5.37990856  F       0.00000000       0.00000000       0.00000000       0.02172405      -0.06160223       0.12222829
Pd       8.55101087       6.13867203       7.39778985  T       0.00000000       0.00000000       0.00000000       0.00338051       0.00003085       0.00530564
Pd       7.99725790       1.84552105       1.50000000  F       0.00000000       0.00000000       0.00000000      -0.00229392       0.01249368      -0.23429803
Pd       9.84277895       2.46069474       3.44535000  F       0.00000000       0.00000000       0.00000000      -0.06730166       0.03433151       0.08229232
Pd       8.00617313       1.83308050       5.40627808  F       0.00000000       0.00000000       0.00000000       0.06461191      -0.02192538       0.09525983
Pd       9.81667049       2.45910352       7.50557970  T       0.00000000       0.00000000       0.00000000      -0.00017133       0.00186930       0.00392765
Pd       9.22760527       4.30621579       1.50000000  F       0.00000000       0.00000000       0.00000000      -0.00503855      -0.00239882      -0.22741403
Pd       4.92138948       4.92138948       3.44535000  F       0.00000000       0.00000000       0.00000000      -0.08775463       0.02782648       0.06430752
Pd       9.23880082       4.29705767       5.43124473  T       0.00000000       0.00000000       0.00000000       0.00085735      -0.00144665       0.00262958
Pd       4.91714199       4.96464785       7.39047209  T       0.00000000       0.00000000       0.00000000       0.00401193       0.00082645       0.00108725
Pd      10.45795264       6.76691053       1.50000000  F       0.00000000       0.00000000       0.00000000       0.00281717      -0.00562956      -0.23281459
Pd       0.00000000       7.38208422       3.44535000  F       0.00000000       0.00000000       0.00000000      -0.00284762       0.00727439       0.05660250
Pd      10.43991375       6.78245558       5.40242713  F       0.00000000       0.00000000       0.00000000      -0.02149983      -0.00553251       0.18727244
Pd      12.27025066       7.45404059       7.40460137  T       0.00000000       0.00000000       0.00000000       0.00205200       0.00302654      -0.00010375
Pd       4.92138948      11.07312632       3.44535000  F       0.00000000       0.00000000       0.00000000      -0.08899461       0.02370389       0.06450674
Pd       1.23034737       9.84277895       3.44535000  F       0.00000000       0.00000000       0.00000000       0.07093787       0.01234564       0.12513291
Pd      11.67120661       9.23591801       5.37701028  F       0.00000000       0.00000000       0.00000000      -0.00086220      -0.00446384       0.30398143
Pd       1.19033678       9.79830413       7.36975686  T       0.00000000       0.00000000       0.00000000      -0.00876126      -0.00118891      -0.00707732
Pd       0.61517368      11.68830001       1.50000000  F       0.00000000       0.00000000       0.00000000       0.00221400       0.00431453      -0.23291353
Pd       2.46069474       0.00000000       3.44535000  F       0.00000000       0.00000000       0.00000000       0.03842613      -0.05685440       0.11491332
Pd       2.40332192      -0.00001083       7.38366933  T       0.00000000       0.00000000       0.00000000      -0.00099683       0.00344391      -0.00953235
Pd       9.24055195      10.45174371       5.43497294  T       0.00000000       0.00000000       0.00000000      -0.00055106       0.00093224       0.00018267
Pd       3.65764089       8.60389871       7.51335580  T       0.00000000       0.00000000       0.00000000       0.01032088       0.00335973       0.00004602
Pd       4.30621579       0.61517368       1.50000000  F       0.00000000       0.00000000       0.00000000       0.00300190      -0.00604627      -0.23286287
Pd      11.07312632       4.92138948       3.44535000  F       0.00000000       0.00000000       0.00000000      -0.08276524       0.02878450       0.05711942
Pd       4.30621579       6.76691053       1.50000000  F       0.00000000       0.00000000       0.00000000       0.00314928      -0.00532867      -0.23319701
Pd       3.66606343       2.46790798       7.51015452  T       0.00000000       0.00000000       0.00000000      -0.00205374      -0.00150242      -0.00114969
Pd       2.39323696       6.14355935       7.43361560  T       0.00000000       0.00000000       0.00000000      -0.00159929       0.00353949      -0.00812673
Pd       0.60433818       5.55187436       5.37993065  F       0.00000000       0.00000000       0.00000000       0.05377352      -0.02991581       0.17130776
Pd       2.46069474       6.15173685       3.44535000  F       0.00000000       0.00000000       0.00000000       0.03296173      -0.04472177       0.11216251
Pd       0.61517368       5.53656316       1.50000000  F       0.00000000       0.00000000       0.00000000       0.00126535       0.00508940      -0.23427277
Pd       1.18051924       3.65622930       7.35438568  T       0.00000000       0.00000000       0.00000000      -0.00026411      -0.00045801       0.00320367
Pd      11.67123156       3.08419612       5.37703229  F       0.00000000       0.00000000       0.00000000      -0.02679657      -0.00262694       0.25230051
Pd       6.88910057       6.62980125       9.90614170  T       0.00000000       0.00000000       0.00000000      -0.00960282      -0.01027141      -0.00039283
Pd       1.23034737       3.69104211       3.44535000  F       0.00000000       0.00000000       0.00000000       0.07406030       0.01009772       0.12593273
Pd      12.26257579       1.30877170       7.39175022  T       0.00000000       0.00000000       0.00000000      -0.00195559      -0.00438018       0.00128992
Pd      10.43990395       0.63072067       5.40242717  F       0.00000000       0.00000000       0.00000000      -0.04094868      -0.01734871       0.20039205
Pd       0.00000000       1.23034737       3.44535000  F       0.00000000       0.00000000       0.00000000      -0.00431504       0.00819719       0.05060697
Pd       1.84552105       1.84552105       1.50000000  F       0.00000000       0.00000000       0.00000000      -0.00273426       0.01228042      -0.23317950
Pd      10.45795264       0.61517368       1.50000000  F       0.00000000       0.00000000       0.00000000       0.00276288      -0.00623557      -0.23260329
Pd      11.08974406      11.11476619       7.40479572  T       0.00000000       0.00000000       0.00000000       0.00610137      -0.00107583      -0.00441570
Pd       3.08665865      10.44588765       5.43472874  T       0.00000000       0.00000000       0.00000000       0.00082479      -0.00389019       0.00113469
Pd       3.69104211       2.46069474       3.44535000  F       0.00000000       0.00000000       0.00000000      -0.06537007       0.04239087       0.09401004
Pd       1.85442396       1.83305046       5.40626716  F       0.00000000       0.00000000       0.00000000       0.06071874       0.04375165       0.06360922
Pd      11.68830001       3.07586842       1.50000000  F       0.00000000       0.00000000       0.00000000      -0.00044688      -0.00978335      -0.23255092
Pd       0.73851328       0.50803152       9.91707466  T       0.00000000       0.00000000       0.00000000      -0.02214679      -0.01134252       0.00084926
Pd       2.30087611       3.48085874       9.77205571  T       0.00000000       0.00000000       0.00000000       0.00062584      -0.00283494       0.01051694
Pd       3.85003824       6.65437715       9.98583926  T       0.00000000       0.00000000       0.00000000       0.02004810       0.03475227       0.01536146
Pd       6.15173685       1.23034737       3.44535000  F       0.00000000       0.00000000       0.00000000      -0.00422265       0.00491559       0.05629577
Pd       4.28818081       0.63072761       5.40241929  F       0.00000000       0.00000000       0.00000000      -0.02240792      -0.01450765       0.17466434
Pd       6.10885609       1.29886628       7.39144741  T       0.00000000       0.00000000       0.00000000      -0.00369451       0.00019033      -0.00093732
Pd       5.53656316       3.07586842       1.50000000  F       0.00000000       0.00000000       0.00000000       0.00034906      -0.00935016      -0.23226693
Pd       1.85444455       7.98478761       5.40627529  F       0.00000000       0.00000000       0.00000000       0.04427176      -0.00609292       0.16355625
Pd       5.36637115       3.37768842       9.68085958  T       0.00000000       0.00000000       0.00000000       0.00645328       0.00295953       0.00239251
Pd       3.07586842      10.45795264       1.50000000  F       0.00000000       0.00000000       0.00000000      -0.00534143      -0.00256886      -0.22743206
Pd       3.07586842       4.30621579       1.50000000  F       0.00000000       0.00000000       0.00000000      -0.00515245      -0.00287075      -0.22831306
Pd       3.08348560       4.30257769       5.43408267  T       0.00000000       0.00000000       0.00000000       0.00156193      -0.00330664      -0.00007226
Pd      11.08434725       4.95944283       7.39538778  T       0.00000000       0.00000000       0.00000000       0.00127812       0.00364183       0.00131067
Pd      11.07312632      11.07312632       3.44535000  F       0.00000000       0.00000000       0.00000000      -0.08391146       0.02736425       0.06263356
Pd       9.98279733       0.51688116       9.92795513  T       0.00000000       0.00000000       0.00000000      -0.00450234       0.01176069      -0.00030891
Pd       6.89385153       0.48724632       9.91732908  T       0.00000000       0.00000000       0.00000000       0.00278122       0.02185017       0.01249103
Pd       8.45452372       9.59192418       9.76432958  T       0.00000000       0.00000000       0.00000000       0.00100766       0.00296390       0.00852232
Pd       0.69053775       6.60951545       9.99362177  T       0.00000000       0.00000000       0.00000000      -0.02260793      -0.00567082      -0.00038648
Pd       5.38484872       9.52626674       9.69371189  T       0.00000000       0.00000000       0.00000000       0.00310558       0.00473394       0.00312376
Pd      11.53012598       3.36157419       9.68199816  T       0.00000000       0.00000000       0.00000000      -0.00424937       0.01771120      -0.00039684
Pd       8.45315502       3.43225193       9.75556049  T       0.00000000       0.00000000       0.00000000       0.00661342       0.00716381       0.00677432
Pd       9.95314145       6.65787836       9.91172961  T       0.00000000       0.00000000       0.00000000       0.01234596      -0.00073595      -0.00063603
Pd       3.83651505       0.55629791       9.91063626  T       0.00000000       0.00000000       0.00000000       0.00891480      -0.01067780       0.01009963
Pd       2.32913434       9.71540026       9.87036696  T       0.00000000       0.00000000       0.00000000       0.00103329      -0.00968638       0.00746727
Pd       4.92583713      11.10611639       7.40341511  T       0.00000000       0.00000000       0.00000000       0.00316282       0.00470859       0.00403435
Pd      11.49869747       9.50778638       9.67653391  T       0.00000000       0.00000000       0.00000000      -0.00189234       0.00772828       0.00248549
C        5.79126849       8.84555421      13.38967049  T       0.00000000       0.00000000       0.00000000      -0.00350403       0.01058037      -0.00637877
O        5.56683310       7.87028668      13.95117135  T       0.00000000       0.00000000       0.00000000       0.01186766       0.00386918      -0.00568259
O        2.44053357       7.75175691      12.27866564  T       0.00000000       0.00000000       0.00000000       0.00378075      -0.01224849       0.00247723
C        1.50690277       8.65340283      12.89489161  T       0.00000000       0.00000000       0.00000000       0.00579870       0.00318247      -0.00476130
H        1.70063586       8.50816476      13.96997871  T       0.00000000       0.00000000       0.00000000       0.00585610      -0.00442829      -0.00422804
H        1.71082754       9.70852928      12.62703308  T       0.00000000       0.00000000       0.00000000       0.01731309       0.00707297      -0.01409102
H        0.46172864       8.38959756      12.66050443  T       0.00000000       0.00000000       0.00000000      -0.00076261       0.00182975      -0.00132641
