119
Lattice="12.303473692417112 0.0 0.0 0.0 12.303473692417114 0.0 0.0 0.0 29.165420746594243" Properties=species:S:1:pos:R:3:move_mask:L:1:momenta:R:3:forces:R:3 idx=7276 E_MACE=-598.8340941498747 d_min=2.3028401284937443 d_reactive=4.619561368064953 rank=11593 dE_rel_meV=2831.3949149379596 converged=T energy=-598.8340941498747 stress="0.005485928760172905 0.00037982386643695473 -6.21825840298987e-05 0.00037982386643695473 0.004517186302726972 0.0001294925036755282 -6.21825840298987e-05 0.0001294925036755282 -0.003432003419358766" pbc="T T T"
O        8.49220537      11.58763831       9.36295591  T       0.00000000       0.00000000       0.00000000      -0.01157271      -0.01822563      -0.00298727
O       11.49180143       5.39592096       9.38109997  T       0.00000000       0.00000000       0.00000000       0.00451551       0.01193394       0.00405784
O       11.56003374       1.65336106      10.57522838  T       0.00000000       0.00000000       0.00000000       0.00728664      -0.01377124      -0.00126530
O       11.51447228      11.55023109       9.37699863  T       0.00000000       0.00000000       0.00000000       0.00238245       0.00691120       0.01013493
O        8.43815193       7.83126285      10.55024714  T       0.00000000       0.00000000       0.00000000       0.01024751       0.00635261       0.01323035
O        5.35640376      11.55145710       9.38138857  T       0.00000000       0.00000000       0.00000000       0.00197415      -0.00591872       0.01557597
O        5.38518172       7.81112232      10.58135251  T       0.00000000       0.00000000       0.00000000       0.01134536       0.00138401       0.01278487
O        8.45633619       5.44965743       9.36225377  T       0.00000000       0.00000000       0.00000000      -0.00576042      -0.00087306       0.00409555
O       11.53258589       7.80299169      10.56732829  T       0.00000000       0.00000000       0.00000000       0.01455990      -0.01105170       0.03106650
O        2.31199956       5.45497984       9.36230776  T       0.00000000       0.00000000       0.00000000       0.00438857      -0.01450848      -0.00715027
O        2.29314228       1.68802198      10.53918136  T       0.00000000       0.00000000       0.00000000      -0.01782876      -0.00522238       0.00095393
O        2.33171024      11.59964198       9.37242129  T       0.00000000       0.00000000       0.00000000       0.00630160       0.00190606      -0.00605782
O        5.33889914       5.43066966       9.37053511  T       0.00000000       0.00000000       0.00000000       0.00400625       0.02264662      -0.01190201
O        5.42442292       1.67286367      10.49909724  T       0.00000000       0.00000000       0.00000000      -0.00386427       0.00820288       0.01320432
O        2.26688459       7.83856589      10.54255127  T       0.00000000       0.00000000       0.00000000       0.01174699      -0.00919516       0.01491186
O        8.45570381       1.68094448      10.52446720  T       0.00000000       0.00000000       0.00000000      -0.00731084       0.00669985       0.01305422
Pd       5.53656316       9.22760527       1.50000000  F       0.00000000       0.00000000       0.00000000      -0.00021803      -0.00949625      -0.23275547
Pd       6.12003819       7.46246240       7.38805070  T       0.00000000       0.00000000       0.00000000      -0.01377487       0.00129376       0.00406919
Pd       4.28815433       6.78245218       5.40241719  F       0.00000000       0.00000000       0.00000000      -0.04579997       0.01677105       0.17017145
Pd       6.15173685       7.38208422       3.44535000  F       0.00000000       0.00000000       0.00000000      -0.00195585       0.00480613       0.05285345
Pd       7.33322020       3.66013270       7.35123746  T       0.00000000       0.00000000       0.00000000       0.00388382      -0.00751400       0.00185101
Pd       5.51948843       3.08419342       5.37702261  F       0.00000000       0.00000000       0.00000000      -0.04255797       0.01824914       0.26528007
Pd       6.76691053       5.53656316       1.50000000  F       0.00000000       0.00000000       0.00000000       0.00180390       0.00478355      -0.23293398
Pd       7.38208422       9.84277895       3.44535000  F       0.00000000       0.00000000       0.00000000       0.07218226       0.01291599       0.12717691
Pd       7.99725790       7.99725790       1.50000000  F       0.00000000       0.00000000       0.00000000      -0.00221776       0.01202804      -0.23326904
Pd       5.51951598       9.23590192       5.37700272  F       0.00000000       0.00000000       0.00000000      -0.02971400       0.02584049       0.25848822
Pd       8.00616182       7.98477587       5.40628129  F       0.00000000       0.00000000       0.00000000       0.07709193       0.01071558       0.07957067
Pd       6.76691053      11.68830001       1.50000000  F       0.00000000       0.00000000       0.00000000       0.00170128       0.00513175      -0.23360403
Pd       8.61243158       0.00000000       3.44535000  F       0.00000000       0.00000000       0.00000000       0.03512211      -0.04756980       0.11380005
Pd       6.75606179      11.70364973       5.37992114  F       0.00000000       0.00000000       0.00000000       0.05142884      -0.06424568       0.14111079
Pd       8.55384059      -0.01818096       7.41321402  T       0.00000000       0.00000000       0.00000000       0.01507134       0.01919223      -0.01238031
Pd       9.84277895       8.61243158       3.44535000  F       0.00000000       0.00000000       0.00000000      -0.06959188       0.03824205       0.09190368
Pd       7.38208422       3.69104211       3.44535000  F       0.00000000       0.00000000       0.00000000       0.07051727       0.01265973       0.12467665
Pd       3.69104211       8.61243158       3.44535000  F       0.00000000       0.00000000       0.00000000      -0.06880055       0.03954878       0.09486963
Pd       9.82262292       8.61144356       7.50225555  T       0.00000000       0.00000000       0.00000000      -0.00092010       0.01803028       0.00875114
Pd       9.22760527      10.45795264       1.50000000  F       0.00000000       0.00000000       0.00000000      -0.00504830      -0.00263031      -0.22792454
Pd       7.33217712       9.80432678       7.35667708  T       0.00000000       0.00000000       0.00000000       0.00343537       0.01397949       0.00521688
Pd       1.84552105       7.99725790       1.50000000  F       0.00000000       0.00000000       0.00000000      -0.00211954       0.01217100      -0.23316509
Pd      11.68830001       9.22760527       1.50000000  F       0.00000000       0.00000000       0.00000000      -0.00029425      -0.00938777      -0.23276493
Pd       0.60431863      11.70356305       5.37989931  F       0.00000000       0.00000000       0.00000000       0.05829630      -0.04741711       0.14485163
Pd       8.61243158       6.15173685       3.44535000  F       0.00000000       0.00000000       0.00000000       0.03438081      -0.04826606       0.11214785
Pd       6.75605293       5.55187564       5.37990856  F       0.00000000       0.00000000       0.00000000       0.05200480      -0.04806595       0.12458162
Pd       8.55586526       6.14256438       7.41240974  T       0.00000000       0.00000000       0.00000000       0.00799343       0.00475653      -0.01068643
Pd       7.99725790       1.84552105       1.50000000  F       0.00000000       0.00000000       0.00000000      -0.00258024       0.01221832      -0.23349318
Pd       9.84277895       2.46069474       3.44535000  F       0.00000000       0.00000000       0.00000000      -0.06876560       0.03780980       0.09250060
Pd       8.00617313       1.83308050       5.40627808  F       0.00000000       0.00000000       0.00000000       0.08300116       0.00103816       0.09923562
Pd       9.82324244       2.46281692       7.50374691  T       0.00000000       0.00000000       0.00000000      -0.00329054       0.01174572       0.00345340
Pd       9.22760527       4.30621579       1.50000000  F       0.00000000       0.00000000       0.00000000      -0.00509603      -0.00274753      -0.22793317
Pd       4.92138948       4.92138948       3.44535000  F       0.00000000       0.00000000       0.00000000      -0.08674379       0.02346658       0.06178989
Pd       9.23865597       4.30035379       5.43275077  T       0.00000000       0.00000000       0.00000000       0.01322937       0.00012611       0.01331012
Pd       4.92512097       4.98198003       7.39475143  T       0.00000000       0.00000000       0.00000000      -0.00484961      -0.01493402      -0.00483815
Pd      10.45795264       6.76691053       1.50000000  F       0.00000000       0.00000000       0.00000000       0.00305025      -0.00574937      -0.23324961
Pd       0.00000000       7.38208422       3.44535000  F       0.00000000       0.00000000       0.00000000      -0.00244867       0.00623314       0.05277412
Pd      10.43991375       6.78245558       5.40242713  F       0.00000000       0.00000000       0.00000000      -0.03631141      -0.00668063       0.18743904
Pd      12.26890555       7.46505041       7.39107687  T       0.00000000       0.00000000       0.00000000      -0.01640478      -0.01372511       0.00153699
Pd       4.92138948      11.07312632       3.44535000  F       0.00000000       0.00000000       0.00000000      -0.08572804       0.02540174       0.06280819
Pd       1.23034737       9.84277895       3.44535000  F       0.00000000       0.00000000       0.00000000       0.07495357       0.01326700       0.12843526
Pd      11.67120661       9.23591801       5.37701028  F       0.00000000       0.00000000       0.00000000      -0.02915818       0.01213072       0.25047889
Pd       1.18302353       9.80978087       7.35150892  T       0.00000000       0.00000000       0.00000000       0.00733750      -0.00172131       0.00933641
Pd       0.61517368      11.68830001       1.50000000  F       0.00000000       0.00000000       0.00000000       0.00158752       0.00494421      -0.23308759
Pd       2.46069474       0.00000000       3.44535000  F       0.00000000       0.00000000       0.00000000       0.03522615      -0.04786865       0.11578748
Pd       2.40460577      -0.01164380       7.41761017  T       0.00000000       0.00000000       0.00000000       0.00294562       0.00309877      -0.00392409
Pd       9.23956264      10.45185226       5.43303711  T       0.00000000       0.00000000       0.00000000      -0.00081633      -0.00236683       0.01005689
Pd       3.67623855       8.61874731       7.50440366  T       0.00000000       0.00000000       0.00000000      -0.01075629       0.00901381       0.01254160
Pd       4.30621579       0.61517368       1.50000000  F       0.00000000       0.00000000       0.00000000       0.00342236      -0.00559931      -0.23381220
Pd      11.07312632       4.92138948       3.44535000  F       0.00000000       0.00000000       0.00000000      -0.08465878       0.02515771       0.06172083
Pd       4.30621579       6.76691053       1.50000000  F       0.00000000       0.00000000       0.00000000       0.00316797      -0.00614488      -0.23303723
Pd       3.67035126       2.45960921       7.50436080  T       0.00000000       0.00000000       0.00000000      -0.00751470       0.02015838       0.00405060
Pd       2.39847674       6.14832084       7.41173559  T       0.00000000       0.00000000       0.00000000       0.00262265      -0.00070796      -0.00253678
Pd       0.60433818       5.55187436       5.37993065  F       0.00000000       0.00000000       0.00000000       0.04065689      -0.05351638       0.14211181
Pd       2.46069474       6.15173685       3.44535000  F       0.00000000       0.00000000       0.00000000       0.03462065      -0.04738129       0.11189970
Pd       0.61517368       5.53656316       1.50000000  F       0.00000000       0.00000000       0.00000000       0.00188570       0.00466086      -0.23317530
Pd       1.18240679       3.65326834       7.35434134  T       0.00000000       0.00000000       0.00000000      -0.00191771       0.00962364       0.00456175
Pd      11.67123156       3.08419612       5.37703229  F       0.00000000       0.00000000       0.00000000      -0.03068588       0.02027912       0.26050410
Pd       6.90210685       6.67380293       9.91985692  T       0.00000000       0.00000000       0.00000000      -0.00968087      -0.02014076      -0.00627372
Pd       1.23034737       3.69104211       3.44535000  F       0.00000000       0.00000000       0.00000000       0.07263361       0.01153387       0.12633234
Pd      12.26649141       1.30681610       7.38748965  T       0.00000000       0.00000000       0.00000000      -0.00239824      -0.00058765       0.01581164
Pd      10.43990395       0.63072067       5.40242717  F       0.00000000       0.00000000       0.00000000      -0.04394916      -0.00630128       0.18825804
Pd       0.00000000       1.23034737       3.44535000  F       0.00000000       0.00000000       0.00000000      -0.00118916       0.00509555       0.05444922
Pd       1.84552105       1.84552105       1.50000000  F       0.00000000       0.00000000       0.00000000      -0.00229651       0.01233510      -0.23359978
Pd      10.45795264       0.61517368       1.50000000  F       0.00000000       0.00000000       0.00000000       0.00311813      -0.00547676      -0.23320196
Pd      11.08548405      11.11909755       7.40208821  T       0.00000000       0.00000000       0.00000000       0.00070151      -0.00304458      -0.00344393
Pd       3.08803939      10.45314614       5.43453230  T       0.00000000       0.00000000       0.00000000       0.01166094       0.00125387       0.00330417
Pd       3.69104211       2.46069474       3.44535000  F       0.00000000       0.00000000       0.00000000      -0.06897940       0.04016191       0.09470674
Pd       1.85442396       1.83305046       5.40626716  F       0.00000000       0.00000000       0.00000000       0.07496769      -0.00372837       0.08995157
Pd      11.68830001       3.07586842       1.50000000  F       0.00000000       0.00000000       0.00000000      -0.00046368      -0.00958971      -0.23270187
Pd       0.76971398       0.51168232       9.91151429  T       0.00000000       0.00000000       0.00000000      -0.02603702       0.02049361       0.02198526
Pd       2.33042118       3.47296070       9.76229806  T       0.00000000       0.00000000       0.00000000       0.00886826       0.01329508       0.01140856
Pd       3.83486380       6.71081350       9.92334564  T       0.00000000       0.00000000       0.00000000       0.00399601      -0.00752167      -0.00057926
Pd       6.15173685       1.23034737       3.44535000  F       0.00000000       0.00000000       0.00000000      -0.00146228       0.00587174       0.05339755
Pd       4.28818081       0.63072761       5.40241929  F       0.00000000       0.00000000       0.00000000      -0.04022617      -0.00049901       0.19113505
Pd       6.11883043       1.30870236       7.38944672  T       0.00000000       0.00000000       0.00000000      -0.00287993      -0.00468360      -0.00146781
Pd       5.53656316       3.07586842       1.50000000  F       0.00000000       0.00000000       0.00000000      -0.00013175      -0.00944943      -0.23297918
Pd       1.85444455       7.98478761       5.40627529  F       0.00000000       0.00000000       0.00000000       0.08001994       0.01525874       0.08583830
Pd       5.40643043       3.41107934       9.62985119  T       0.00000000       0.00000000       0.00000000       0.00745728      -0.00865878       0.00940198
Pd       3.07586842      10.45795264       1.50000000  F       0.00000000       0.00000000       0.00000000      -0.00534778      -0.00259447      -0.22831199
Pd       3.07586842       4.30621579       1.50000000  F       0.00000000       0.00000000       0.00000000      -0.00475166      -0.00285778      -0.22796924
Pd       3.08591228       4.30104755       5.43414613  T       0.00000000       0.00000000       0.00000000       0.00536823      -0.00647945      -0.00411990
Pd      11.08965007       4.97326805       7.40278676  T       0.00000000       0.00000000       0.00000000      -0.02472048      -0.02229740      -0.00298420
Pd      11.07312632      11.07312632       3.44535000  F       0.00000000       0.00000000       0.00000000      -0.08412513       0.02649943       0.05849302
Pd      10.01629975       0.54270461       9.91698387  T       0.00000000       0.00000000       0.00000000       0.01862992       0.00426232      -0.00597825
Pd       6.93182636       0.49317118       9.91605661  T       0.00000000       0.00000000       0.00000000      -0.00212703      -0.00925078      -0.02060866
Pd       8.49265448       9.61235531       9.76342902  T       0.00000000       0.00000000       0.00000000      -0.00654884       0.01190507       0.00646584
Pd       0.74408417       6.66110726       9.91487631  T       0.00000000       0.00000000       0.00000000       0.00921947      -0.00182506       0.00379525
Pd       5.38744253       9.54195229       9.68682025  T       0.00000000       0.00000000       0.00000000       0.00353403       0.01137126      -0.00723245
Pd      11.54657661       3.38371030       9.67949529  T       0.00000000       0.00000000       0.00000000      -0.00246218       0.00007279       0.00066520
Pd       8.47727446       3.46947836       9.76018449  T       0.00000000       0.00000000       0.00000000       0.00001367       0.01013127      -0.00087279
Pd       9.99066058       6.69006637       9.92156422  T       0.00000000       0.00000000       0.00000000      -0.00709626       0.00958905      -0.00073987
Pd       3.86014229       0.54586259       9.93218542  T       0.00000000       0.00000000       0.00000000      -0.02184810      -0.01974720      -0.02969745
Pd       2.32492793       9.62036368       9.75975273  T       0.00000000       0.00000000       0.00000000      -0.00042481       0.00680217       0.01858188
Pd       4.93619596      11.12870382       7.40549359  T       0.00000000       0.00000000       0.00000000       0.00412129      -0.02505199       0.01094316
Pd      11.53811887       9.53684074       9.67550013  T       0.00000000       0.00000000       0.00000000       0.01561617       0.00269342       0.01306035
C        9.53797888       0.36311449      13.44533998  T       0.00000000       0.00000000       0.00000000      -0.01470696      -0.02473379      -0.03883248
O        8.91032798       1.23788470      13.84119510  T       0.00000000       0.00000000       0.00000000       0.01858152       0.02362045       0.00983125
O        5.14511177       1.63055869      12.78454429  T       0.00000000       0.00000000       0.00000000      -0.00661353      -0.01528740      -0.00251548
C        5.09444443       2.97035198      13.04555359  T       0.00000000       0.00000000       0.00000000      -0.00815230      -0.02643053      -0.00565749
H        4.99573423       3.14023134      14.14791872  T       0.00000000       0.00000000       0.00000000      -0.00064704      -0.04115272       0.00393715
H        6.02060296       3.51935105      12.72235263  T       0.00000000       0.00000000       0.00000000      -0.02631612       0.01063417       0.00997683
H        4.21084682       3.48094703      12.56902771  T       0.00000000       0.00000000       0.00000000       0.01277560       0.02948538       0.01519669
