119
Lattice="12.303473692417112 0.0 0.0 0.0 12.303473692417114 0.0 0.0 0.0 29.165420746594243" Properties=species:S:1:pos:R:3:move_mask:L:1:momenta:R:3:forces:R:3 idx=4800 E_MACE=-598.8175843079835 d_min=2.6994391423481012 d_reactive=4.405882555441016 rank=11595 dE_rel_meV=2847.904756829166 converged=T energy=-598.8175843079835 stress="0.005639689912473083 0.00033450152300774184 -0.00016257818752084288 0.00033450152300774184 0.004807637487596019 8.215052247160755e-05 -0.00016257818752084288 8.215052247160755e-05 -0.003191975705746272" pbc="T T T"
O        8.47215102      11.61457511       9.36188422  T       0.00000000       0.00000000       0.00000000      -0.00780343      -0.01884460       0.01720143
O       11.48503326       5.41367340       9.37817501  T       0.00000000       0.00000000       0.00000000       0.01674438      -0.01121515       0.01001803
O       11.54641677       1.67038493      10.58318881  T       0.00000000       0.00000000       0.00000000      -0.01837755       0.00987645       0.00608480
O       11.50693418      11.58090220       9.37651666  T       0.00000000       0.00000000       0.00000000      -0.01589135       0.00852761       0.00872538
O        8.41540217       7.84239734      10.52696089  T       0.00000000       0.00000000       0.00000000      -0.00079758       0.01665817       0.00059485
O        5.34177451      11.56585766       9.38624763  T       0.00000000       0.00000000       0.00000000      -0.00558337       0.01177392      -0.01576598
O        5.38861538       7.81850574      10.57057405  T       0.00000000       0.00000000       0.00000000      -0.01848752       0.00060171      -0.00421693
O        8.44023755       5.44223143       9.35734632  T       0.00000000       0.00000000       0.00000000       0.02792877      -0.02514654       0.01399316
O       11.50602318       7.82054266      10.51049307  T       0.00000000       0.00000000       0.00000000      -0.00084700       0.01623397       0.01939210
O        2.30017575       5.46955365       9.36781744  T       0.00000000       0.00000000       0.00000000      -0.00862420      -0.03165381       0.01598358
O        2.28839445       1.70765484      10.55237890  T       0.00000000       0.00000000       0.00000000       0.00709134      -0.00570539       0.00030422
O        2.31515773      11.62641290       9.36645241  T       0.00000000       0.00000000       0.00000000       0.00390913      -0.00994289       0.00021461
O        5.34003325       5.39933890       9.38618077  T       0.00000000       0.00000000       0.00000000      -0.04184148       0.00026588      -0.00238773
O        5.39825913       1.65614398      10.59631766  T       0.00000000       0.00000000       0.00000000      -0.00245186       0.00179905      -0.00189014
O        2.29022175       7.85649327      10.51592779  T       0.00000000       0.00000000       0.00000000       0.01777616       0.00897180      -0.00971445
O        8.43451443       1.68229010      10.56378054  T       0.00000000       0.00000000       0.00000000       0.00358673       0.02688867      -0.01768022
Pd       5.53656316       9.22760527       1.50000000  F       0.00000000       0.00000000       0.00000000      -0.00088714      -0.00972905      -0.23238010
Pd       6.10211860       7.46069238       7.38909781  T       0.00000000       0.00000000       0.00000000       0.02320811       0.00026782       0.00311584
Pd       4.28815433       6.78245218       5.40241719  F       0.00000000       0.00000000       0.00000000      -0.05447180      -0.01200367       0.19893337
Pd       6.15173685       7.38208422       3.44535000  F       0.00000000       0.00000000       0.00000000      -0.00157453       0.00606911       0.05299109
Pd       7.32664726       3.64921285       7.35769720  T       0.00000000       0.00000000       0.00000000       0.00303461       0.00594319      -0.00190165
Pd       5.51948843       3.08419342       5.37702261  F       0.00000000       0.00000000       0.00000000      -0.03734728       0.00859337       0.26763351
Pd       6.76691053       5.53656316       1.50000000  F       0.00000000       0.00000000       0.00000000       0.00209457       0.00529592      -0.23306139
Pd       7.38208422       9.84277895       3.44535000  F       0.00000000       0.00000000       0.00000000       0.07688730       0.01410520       0.13215209
Pd       7.99725790       7.99725790       1.50000000  F       0.00000000       0.00000000       0.00000000      -0.00253686       0.01251813      -0.23337445
Pd       5.51951598       9.23590192       5.37700272  F       0.00000000       0.00000000       0.00000000      -0.04079055       0.02961363       0.25831655
Pd       8.00616182       7.98477587       5.40628129  F       0.00000000       0.00000000       0.00000000       0.06573865       0.00796284       0.10678674
Pd       6.76691053      11.68830001       1.50000000  F       0.00000000       0.00000000       0.00000000       0.00209493       0.00503574      -0.23325544
Pd       8.61243158       0.00000000       3.44535000  F       0.00000000       0.00000000       0.00000000       0.03820890      -0.05380947       0.11924019
Pd       6.75606179      11.70364973       5.37992114  F       0.00000000       0.00000000       0.00000000       0.03843788      -0.05943460       0.15625153
Pd       8.55565297      -0.00530028       7.41241067  T       0.00000000       0.00000000       0.00000000      -0.00282228       0.00682037      -0.01117251
Pd       9.84277895       8.61243158       3.44535000  F       0.00000000       0.00000000       0.00000000      -0.06940327       0.04224582       0.09456953
Pd       7.38208422       3.69104211       3.44535000  F       0.00000000       0.00000000       0.00000000       0.07563738       0.01392752       0.12722205
Pd       3.69104211       8.61243158       3.44535000  F       0.00000000       0.00000000       0.00000000      -0.07038926       0.04393053       0.09663521
Pd       9.82169943       8.61814185       7.51226767  T       0.00000000       0.00000000       0.00000000       0.00144732       0.00312373      -0.00670627
Pd       9.22760527      10.45795264       1.50000000  F       0.00000000       0.00000000       0.00000000      -0.00515347      -0.00251995      -0.22751904
Pd       7.33034536       9.80744108       7.35426990  T       0.00000000       0.00000000       0.00000000      -0.00815403       0.00058807       0.00469169
Pd       1.84552105       7.99725790       1.50000000  F       0.00000000       0.00000000       0.00000000      -0.00256309       0.01259675      -0.23378098
Pd      11.68830001       9.22760527       1.50000000  F       0.00000000       0.00000000       0.00000000      -0.00049629      -0.00955516      -0.23245028
Pd       0.60431863      11.70356305       5.37989931  F       0.00000000       0.00000000       0.00000000       0.03849770      -0.04164290       0.14956677
Pd       8.61243158       6.15173685       3.44535000  F       0.00000000       0.00000000       0.00000000       0.03712848      -0.05119497       0.11612442
Pd       6.75605293       5.55187564       5.37990856  F       0.00000000       0.00000000       0.00000000       0.02834434      -0.06177585       0.15395840
Pd       8.54629158       6.14045675       7.40938691  T       0.00000000       0.00000000       0.00000000       0.00385368       0.01260544      -0.01300414
Pd       7.99725790       1.84552105       1.50000000  F       0.00000000       0.00000000       0.00000000      -0.00264870       0.01264535      -0.23345483
Pd       9.84277895       2.46069474       3.44535000  F       0.00000000       0.00000000       0.00000000      -0.06927090       0.04076290       0.09368048
Pd       8.00617313       1.83308050       5.40627808  F       0.00000000       0.00000000       0.00000000       0.06897020       0.00848707       0.09644402
Pd       9.81461995       2.47141116       7.51163219  T       0.00000000       0.00000000       0.00000000       0.01472970      -0.00730372       0.00547403
Pd       9.22760527       4.30621579       1.50000000  F       0.00000000       0.00000000       0.00000000      -0.00528853      -0.00239129      -0.22751733
Pd       4.92138948       4.92138948       3.44535000  F       0.00000000       0.00000000       0.00000000      -0.08836559       0.02408762       0.06479342
Pd       9.23852123       4.29970829       5.43610921  T       0.00000000       0.00000000       0.00000000       0.00284899      -0.00071213      -0.00523867
Pd       4.93266134       4.96413635       7.40913790  T       0.00000000       0.00000000       0.00000000       0.00035098       0.01015186       0.00028649
Pd      10.45795264       6.76691053       1.50000000  F       0.00000000       0.00000000       0.00000000       0.00314780      -0.00627173      -0.23363264
Pd       0.00000000       7.38208422       3.44535000  F       0.00000000       0.00000000       0.00000000      -0.00150250       0.00609749       0.05298715
Pd      10.43991375       6.78245558       5.40242713  F       0.00000000       0.00000000       0.00000000      -0.04911928       0.00152526       0.20657170
Pd      12.26795616       7.46169679       7.38895562  T       0.00000000       0.00000000       0.00000000      -0.00005587      -0.00396593      -0.00542541
Pd       4.92138948      11.07312632       3.44535000  F       0.00000000       0.00000000       0.00000000      -0.08896311       0.02138489       0.06552679
Pd       1.23034737       9.84277895       3.44535000  F       0.00000000       0.00000000       0.00000000       0.07485131       0.01294730       0.12802949
Pd      11.67120661       9.23591801       5.37701028  F       0.00000000       0.00000000       0.00000000      -0.03308307       0.01732019       0.27113457
Pd       1.17792541       9.81330907       7.35896899  T       0.00000000       0.00000000       0.00000000      -0.00776971      -0.01487595       0.00171285
Pd       0.61517368      11.68830001       1.50000000  F       0.00000000       0.00000000       0.00000000       0.00246039       0.00502428      -0.23364186
Pd       2.46069474       0.00000000       3.44535000  F       0.00000000       0.00000000       0.00000000       0.03569756      -0.04943075       0.11536090
Pd       2.39977041      -0.00129845       7.41348380  T       0.00000000       0.00000000       0.00000000       0.00285564       0.00896720      -0.01639514
Pd       9.23844435      10.45040438       5.43789484  T       0.00000000       0.00000000       0.00000000       0.00795889       0.00657738      -0.01334074
Pd       3.66299957       8.62626479       7.50511812  T       0.00000000       0.00000000       0.00000000       0.00522563      -0.01415117       0.01079631
Pd       4.30621579       0.61517368       1.50000000  F       0.00000000       0.00000000       0.00000000       0.00319742      -0.00635963      -0.23348811
Pd      11.07312632       4.92138948       3.44535000  F       0.00000000       0.00000000       0.00000000      -0.08737192       0.02330138       0.06469259
Pd       4.30621579       6.76691053       1.50000000  F       0.00000000       0.00000000       0.00000000       0.00340671      -0.00610209      -0.23344586
Pd       3.67332695       2.46757999       7.51970169  T       0.00000000       0.00000000       0.00000000      -0.00094517       0.00027798      -0.01295441
Pd       2.40187245       6.14305645       7.41397068  T       0.00000000       0.00000000       0.00000000      -0.00604984      -0.00230855      -0.01829970
Pd       0.60433818       5.55187436       5.37993065  F       0.00000000       0.00000000       0.00000000       0.05351108      -0.06348293       0.15279910
Pd       2.46069474       6.15173685       3.44535000  F       0.00000000       0.00000000       0.00000000       0.03864713      -0.05478736       0.11821817
Pd       0.61517368       5.53656316       1.50000000  F       0.00000000       0.00000000       0.00000000       0.00194511       0.00528111      -0.23351765
Pd       1.18330193       3.65323674       7.35679362  T       0.00000000       0.00000000       0.00000000      -0.00759966       0.00825768       0.00048715
Pd      11.67123156       3.08419612       5.37703229  F       0.00000000       0.00000000       0.00000000      -0.03549060       0.02740960       0.26541970
Pd       6.89012314       6.66260473       9.91636436  T       0.00000000       0.00000000       0.00000000       0.02253315       0.00650491       0.01091111
Pd       1.23034737       3.69104211       3.44535000  F       0.00000000       0.00000000       0.00000000       0.08078376       0.01620536       0.13426878
Pd      12.25797168       1.31456098       7.39056287  T       0.00000000       0.00000000       0.00000000       0.00658432      -0.01098322      -0.00954896
Pd      10.43990395       0.63072067       5.40242717  F       0.00000000       0.00000000       0.00000000      -0.04656537      -0.00010291       0.19396232
Pd       0.00000000       1.23034737       3.44535000  F       0.00000000       0.00000000       0.00000000      -0.00292498       0.00489032       0.05211142
Pd       1.84552105       1.84552105       1.50000000  F       0.00000000       0.00000000       0.00000000      -0.00249013       0.01223166      -0.23322204
Pd      10.45795264       0.61517368       1.50000000  F       0.00000000       0.00000000       0.00000000       0.00315625      -0.00620459      -0.23278855
Pd      11.08210279      11.12144497       7.40388435  T       0.00000000       0.00000000       0.00000000       0.00338764       0.00928007       0.00499376
Pd       3.08519799      10.45377583       5.43603553  T       0.00000000       0.00000000       0.00000000       0.01034830       0.00108496      -0.00970433
Pd       3.69104211       2.46069474       3.44535000  F       0.00000000       0.00000000       0.00000000      -0.06927666       0.04309179       0.09657724
Pd       1.85442396       1.83305046       5.40626716  F       0.00000000       0.00000000       0.00000000       0.07822049       0.01783335       0.10816267
Pd      11.68830001       3.07586842       1.50000000  F       0.00000000       0.00000000       0.00000000      -0.00094217      -0.00981721      -0.23271210
Pd       0.75873637       0.53952161       9.91717748  T       0.00000000       0.00000000       0.00000000       0.00363819      -0.02446352       0.01640142
Pd       2.31889742       3.49380027       9.77250115  T       0.00000000       0.00000000       0.00000000       0.01495886      -0.01404451      -0.00112809
Pd       3.84195860       6.71051011       9.91185097  T       0.00000000       0.00000000       0.00000000      -0.00350012      -0.00460869       0.00393184
Pd       6.15173685       1.23034737       3.44535000  F       0.00000000       0.00000000       0.00000000      -0.00192998       0.00510247       0.05288573
Pd       4.28818081       0.63072761       5.40241929  F       0.00000000       0.00000000       0.00000000      -0.04512977       0.00631058       0.20473173
Pd       6.11255184       1.30403182       7.39185145  T       0.00000000       0.00000000       0.00000000      -0.00518182       0.00243776       0.00685625
Pd       5.53656316       3.07586842       1.50000000  F       0.00000000       0.00000000       0.00000000      -0.00047175      -0.00952506      -0.23250662
Pd       1.85444455       7.98478761       5.40627529  F       0.00000000       0.00000000       0.00000000       0.06819170       0.02156710       0.10010820
Pd       5.38640390       3.39391300       9.71031720  T       0.00000000       0.00000000       0.00000000       0.00559469      -0.00383022      -0.01470816
Pd       3.07586842      10.45795264       1.50000000  F       0.00000000       0.00000000       0.00000000      -0.00499377      -0.00294063      -0.22765721
Pd       3.07586842       4.30621579       1.50000000  F       0.00000000       0.00000000       0.00000000      -0.00546441      -0.00244572      -0.22756414
Pd       3.08947117       4.29970095       5.43818393  T       0.00000000       0.00000000       0.00000000      -0.00776040      -0.00319584      -0.00567884
Pd      11.08333679       4.96906493       7.40366934  T       0.00000000       0.00000000       0.00000000       0.01242260       0.00562902      -0.00018506
Pd      11.07312632      11.07312632       3.44535000  F       0.00000000       0.00000000       0.00000000      -0.09130140       0.02121143       0.06682686
Pd      10.00118709       0.56102883       9.92757052  T       0.00000000       0.00000000       0.00000000      -0.01528432       0.00130278      -0.00141099
Pd       6.90696014       0.51565374       9.92538384  T       0.00000000       0.00000000       0.00000000       0.00923058       0.01342768       0.00426939
Pd       8.46712239       9.63553763       9.76460291  T       0.00000000       0.00000000       0.00000000       0.01007618      -0.01483569      -0.00825978
Pd       0.74061467       6.68153426       9.92715091  T       0.00000000       0.00000000       0.00000000       0.01215500      -0.01374266      -0.02012016
Pd       5.38525123       9.55077724       9.68125053  T       0.00000000       0.00000000       0.00000000      -0.00649902       0.01443123       0.01119379
Pd      11.53465738       3.40284876       9.68807591  T       0.00000000       0.00000000       0.00000000       0.00109826      -0.00247944      -0.00134252
Pd       8.46002361       3.46548312       9.77314892  T       0.00000000       0.00000000       0.00000000       0.00279630       0.00552560      -0.00424641
Pd       9.97127952       6.70339553       9.89762721  T       0.00000000       0.00000000       0.00000000      -0.00666111      -0.01462796      -0.00380301
Pd       3.84752786       0.56576690       9.92834001  T       0.00000000       0.00000000       0.00000000      -0.00521460      -0.00767647       0.00560723
Pd       2.32579785       9.64808367       9.76761417  T       0.00000000       0.00000000       0.00000000      -0.00202634      -0.01064221       0.00129392
Pd       4.92628275      11.12254832       7.40772156  T       0.00000000       0.00000000       0.00000000       0.01967411       0.00757011      -0.00341896
Pd      11.53692868       9.57403120       9.69896873  T       0.00000000       0.00000000       0.00000000      -0.00007936      -0.00837389       0.01663983
C        4.13414258       6.23139436      13.30577671  T       0.00000000       0.00000000       0.00000000       0.01959065      -0.01865420      -0.01007661
O        5.13236411       6.45921865      13.82506092  T       0.00000000       0.00000000       0.00000000      -0.00349549       0.00637831      -0.02915810
O        0.17104965       8.13365977      13.01068042  T       0.00000000       0.00000000       0.00000000       0.01800331       0.03561595      -0.00206104
C        1.39361462       8.46663616      13.50484583  T       0.00000000       0.00000000       0.00000000      -0.00653380       0.00321631      -0.00873480
H        1.33751459       8.80486783      14.57624853  T       0.00000000       0.00000000       0.00000000      -0.01533848      -0.00472944       0.00031526
H        2.11357614       7.60195695      13.47401972  T       0.00000000       0.00000000       0.00000000      -0.00171836      -0.00364296      -0.00323305
H        1.88441278       9.30731946      12.93554325  T       0.00000000       0.00000000       0.00000000       0.01770402      -0.00631146      -0.00328124
