119
Lattice="12.303473692417112 0.0 0.0 0.0 12.303473692417114 0.0 0.0 0.0 29.165420746594243" Properties=species:S:1:pos:R:3:move_mask:L:1:momenta:R:3:forces:R:3 idx=11391 E_MACE=-601.4566257977606 d_min=2.010185473251082 d_reactive=1.3475889085202015 rank=5 dE_rel_meV=208.86326705203828 converged=T energy=-601.4566257977606 stress="0.00569123145489227 0.0003785630329536459 -6.25876411850291e-05 0.0003785630329536459 0.004838425935644574 9.261369923629529e-05 -6.25876411850291e-05 9.261369923629529e-05 -0.003322202583864977" pbc="T T T"
O        8.47577843      11.62507722       9.33910557  T       0.00000000       0.00000000       0.00000000       0.00442961       0.00707699       0.01612362
O       11.50976786       5.42792097       9.36908473  T       0.00000000       0.00000000       0.00000000      -0.00273321      -0.00927301      -0.00111450
O       11.54863290       1.60167250      10.67750464  T       0.00000000       0.00000000       0.00000000      -0.00004428      -0.01667624      -0.00043824
O       11.49943541      11.56499909       9.37892910  T       0.00000000       0.00000000       0.00000000      -0.00336365       0.00077613       0.00587352
O        8.44997600       7.86615785      10.54226382  T       0.00000000       0.00000000       0.00000000      -0.01058231      -0.01857849      -0.00626740
O        5.34384762      11.57651239       9.37051323  T       0.00000000       0.00000000       0.00000000       0.02324836       0.01270213       0.01011215
O        5.41074514       7.83107522      10.56358121  T       0.00000000       0.00000000       0.00000000      -0.00584978      -0.00541567       0.02329804
O        8.48334214       5.46970507       9.36222774  T       0.00000000       0.00000000       0.00000000      -0.00869254       0.02058643       0.01195687
O       11.56272883       7.82630655      10.58419195  T       0.00000000       0.00000000       0.00000000      -0.01525539      -0.00165772       0.00507234
O        2.33203161       5.47292122       9.35713032  T       0.00000000       0.00000000       0.00000000      -0.00444274      -0.02672928       0.00868503
O        2.28680607       1.69779363      10.54243156  T       0.00000000       0.00000000       0.00000000       0.00463042       0.01664775       0.00182203
O        2.31113353      11.62749447       9.34474419  T       0.00000000       0.00000000       0.00000000      -0.00892508      -0.00581842       0.00122621
O        5.36236957       5.42354920       9.37737003  T       0.00000000       0.00000000       0.00000000       0.00994638      -0.01099824       0.00501395
O        5.39808455       1.66909316      10.56879077  T       0.00000000       0.00000000       0.00000000      -0.00735816      -0.00565534      -0.00208128
O        2.30680458       7.86148029      10.53979005  T       0.00000000       0.00000000       0.00000000      -0.00344832       0.01212615       0.00495747
O        8.43522049       1.69328259      10.53383866  T       0.00000000       0.00000000       0.00000000      -0.01543019       0.00282648       0.01299128
Pd       5.53656316       9.22760527       1.50000000  F       0.00000000       0.00000000       0.00000000      -0.00031119      -0.00925461      -0.23237083
Pd       6.12418344       7.46121317       7.39096874  T       0.00000000       0.00000000       0.00000000      -0.00905546      -0.00754309      -0.02075520
Pd       4.28815433       6.78245218       5.40241719  F       0.00000000       0.00000000       0.00000000      -0.02733280       0.02198056       0.19884063
Pd       6.15173685       7.38208422       3.44535000  F       0.00000000       0.00000000       0.00000000      -0.00095858       0.00456481       0.05232981
Pd       7.33768070       3.65480327       7.35801309  T       0.00000000       0.00000000       0.00000000       0.00800869      -0.00857464       0.01145024
Pd       5.51948843       3.08419342       5.37702261  F       0.00000000       0.00000000       0.00000000      -0.03424073       0.03912704       0.25916351
Pd       6.76691053       5.53656316       1.50000000  F       0.00000000       0.00000000       0.00000000       0.00122602       0.00502577      -0.23265076
Pd       7.38208422       9.84277895       3.44535000  F       0.00000000       0.00000000       0.00000000       0.07163512       0.01177556       0.12351990
Pd       7.99725790       7.99725790       1.50000000  F       0.00000000       0.00000000       0.00000000      -0.00243591       0.01238387      -0.23389845
Pd       5.51951598       9.23590192       5.37700272  F       0.00000000       0.00000000       0.00000000      -0.03175099       0.01620251       0.26726014
Pd       8.00616182       7.98477587       5.40628129  F       0.00000000       0.00000000       0.00000000       0.08738197       0.00481391       0.10284794
Pd       6.76691053      11.68830001       1.50000000  F       0.00000000       0.00000000       0.00000000       0.00231704       0.00466088      -0.23319027
Pd       8.61243158       0.00000000       3.44535000  F       0.00000000       0.00000000       0.00000000       0.03433920      -0.04874844       0.11022651
Pd       6.75606179      11.70364973       5.37992114  F       0.00000000       0.00000000       0.00000000       0.03777800      -0.05059771       0.12119231
Pd       8.55356237       0.00704601       7.39721450  T       0.00000000       0.00000000       0.00000000       0.02378270       0.00693530       0.01332873
Pd       9.84277895       8.61243158       3.44535000  F       0.00000000       0.00000000       0.00000000      -0.06952530       0.03858609       0.09195658
Pd       7.38208422       3.69104211       3.44535000  F       0.00000000       0.00000000       0.00000000       0.07881210       0.01435361       0.13341699
Pd       3.69104211       8.61243158       3.44535000  F       0.00000000       0.00000000       0.00000000      -0.06787144       0.04030031       0.09295309
Pd       9.82532654       8.62120115       7.51041152  T       0.00000000       0.00000000       0.00000000      -0.01370409       0.01160666      -0.01261575
Pd       9.22760527      10.45795264       1.50000000  F       0.00000000       0.00000000       0.00000000      -0.00501190      -0.00299853      -0.22705797
Pd       7.33455100       9.80989178       7.35479340  T       0.00000000       0.00000000       0.00000000      -0.00256785      -0.00091721       0.00007298
Pd       1.84552105       7.99725790       1.50000000  F       0.00000000       0.00000000       0.00000000      -0.00246048       0.01152694      -0.23232063
Pd      11.68830001       9.22760527       1.50000000  F       0.00000000       0.00000000       0.00000000      -0.00037844      -0.00985850      -0.23224018
Pd       0.60431863      11.70356305       5.37989931  F       0.00000000       0.00000000       0.00000000       0.03505566      -0.07360605       0.13205143
Pd       8.61243158       6.15173685       3.44535000  F       0.00000000       0.00000000       0.00000000       0.03717545      -0.05339521       0.12213219
Pd       6.75605293       5.55187564       5.37990856  F       0.00000000       0.00000000       0.00000000       0.07761964      -0.06211813       0.15819776
Pd       8.57174827       6.13295687       7.41071608  T       0.00000000       0.00000000       0.00000000      -0.00593770       0.01984394      -0.00257387
Pd       7.99725790       1.84552105       1.50000000  F       0.00000000       0.00000000       0.00000000      -0.00152273       0.01226019      -0.23364464
Pd       9.84277895       2.46069474       3.44535000  F       0.00000000       0.00000000       0.00000000      -0.07393932       0.03535167       0.08033676
Pd       8.00617313       1.83308050       5.40627808  F       0.00000000       0.00000000       0.00000000       0.05124987       0.03020701       0.05844873
Pd       9.83188583       2.47479632       7.52258163  T       0.00000000       0.00000000       0.00000000       0.00376932      -0.00955300       0.01098347
Pd       9.22760527       4.30621579       1.50000000  F       0.00000000       0.00000000       0.00000000      -0.00512825      -0.00223620      -0.22698469
Pd       4.92138948       4.92138948       3.44535000  F       0.00000000       0.00000000       0.00000000      -0.07987832       0.02363635       0.05666841
Pd       9.24223004       4.29608677       5.43633606  T       0.00000000       0.00000000       0.00000000      -0.00683895      -0.00557966       0.00131688
Pd       4.93608933       4.97422476       7.40207535  T       0.00000000       0.00000000       0.00000000       0.00248617       0.00155034       0.01143017
Pd      10.45795264       6.76691053       1.50000000  F       0.00000000       0.00000000       0.00000000       0.00332688      -0.00608634      -0.23221677
Pd       0.00000000       7.38208422       3.44535000  F       0.00000000       0.00000000       0.00000000      -0.00316583       0.00580579       0.05026297
Pd      10.43991375       6.78245558       5.40242713  F       0.00000000       0.00000000       0.00000000      -0.05339427      -0.01167217       0.18333506
Pd      12.25234995       7.44304464       7.38501326  T       0.00000000       0.00000000       0.00000000       0.00907456      -0.00065363      -0.00730911
Pd       4.92138948      11.07312632       3.44535000  F       0.00000000       0.00000000       0.00000000      -0.08845111       0.02241733       0.06311851
Pd       1.23034737       9.84277895       3.44535000  F       0.00000000       0.00000000       0.00000000       0.07036326       0.01178376       0.12431072
Pd      11.67120661       9.23591801       5.37701028  F       0.00000000       0.00000000       0.00000000      -0.03500289       0.01734513       0.26941544
Pd       1.17610736       9.79659779       7.35554905  T       0.00000000       0.00000000       0.00000000       0.00830260       0.00995937       0.00054238
Pd       0.61517368      11.68830001       1.50000000  F       0.00000000       0.00000000       0.00000000       0.00179174       0.00515294      -0.23422648
Pd       2.46069474       0.00000000       3.44535000  F       0.00000000       0.00000000       0.00000000       0.03611970      -0.05048271       0.11425418
Pd       2.40225453       0.00447079       7.40037676  T       0.00000000       0.00000000       0.00000000      -0.00215830      -0.01506369       0.00160714
Pd       9.23787417      10.45130935       5.43359741  T       0.00000000       0.00000000       0.00000000       0.02149427      -0.00074903       0.01164411
Pd       3.67867974       8.62038604       7.50958354  T       0.00000000       0.00000000       0.00000000      -0.01083446       0.00827586      -0.00254181
Pd       4.30621579       0.61517368       1.50000000  F       0.00000000       0.00000000       0.00000000       0.00362511      -0.00625398      -0.23245790
Pd      11.07312632       4.92138948       3.44535000  F       0.00000000       0.00000000       0.00000000      -0.08834493       0.03032161       0.05872675
Pd       4.30621579       6.76691053       1.50000000  F       0.00000000       0.00000000       0.00000000       0.00316111      -0.00594525      -0.23363199
Pd       3.66451133       2.48274247       7.51176774  T       0.00000000       0.00000000       0.00000000       0.00062895      -0.01186001      -0.00691387
Pd       2.40336962       6.14500923       7.41111361  T       0.00000000       0.00000000       0.00000000       0.00544204       0.00744771      -0.01222463
Pd       0.60433818       5.55187436       5.37993065  F       0.00000000       0.00000000       0.00000000       0.03730590      -0.07120150       0.15298770
Pd       2.46069474       6.15173685       3.44535000  F       0.00000000       0.00000000       0.00000000       0.03174605      -0.04160628       0.10557307
Pd       0.61517368       5.53656316       1.50000000  F       0.00000000       0.00000000       0.00000000       0.00160205       0.00461811      -0.23245398
Pd       1.17668533       3.66072467       7.35755220  T       0.00000000       0.00000000       0.00000000       0.00689027      -0.00804553       0.00691642
Pd      11.67123156       3.08419612       5.37703229  F       0.00000000       0.00000000       0.00000000      -0.02327224      -0.00715924       0.29992996
Pd       6.92421083       6.68897045       9.91317174  T       0.00000000       0.00000000       0.00000000       0.00330715      -0.02804534      -0.00828623
Pd       1.23034737       3.69104211       3.44535000  F       0.00000000       0.00000000       0.00000000       0.07657116       0.01476724       0.11799179
Pd      12.26604450       1.31519649       7.39193945  T       0.00000000       0.00000000       0.00000000      -0.00922702      -0.00542175      -0.01445824
Pd      10.43990395       0.63072067       5.40242717  F       0.00000000       0.00000000       0.00000000      -0.02040786       0.02582552       0.20095696
Pd       0.00000000       1.23034737       3.44535000  F       0.00000000       0.00000000       0.00000000      -0.00355603       0.00395562       0.04651395
Pd       1.84552105       1.84552105       1.50000000  F       0.00000000       0.00000000       0.00000000      -0.00242387       0.01240534      -0.23282269
Pd      10.45795264       0.61517368       1.50000000  F       0.00000000       0.00000000       0.00000000       0.00339750      -0.00574017      -0.23238832
Pd      11.08604254      11.12940928       7.40299935  T       0.00000000       0.00000000       0.00000000      -0.00317536      -0.01181770      -0.00210782
Pd       3.08407287      10.45102219       5.43490119  T       0.00000000       0.00000000       0.00000000       0.01905311      -0.00246549       0.01074570
Pd       3.69104211       2.46069474       3.44535000  F       0.00000000       0.00000000       0.00000000      -0.06879367       0.04040615       0.09305446
Pd       1.85442396       1.83305046       5.40626716  F       0.00000000       0.00000000       0.00000000       0.05314975       0.05196454       0.10938801
Pd      11.68830001       3.07586842       1.50000000  F       0.00000000       0.00000000       0.00000000       0.00063134      -0.00964047      -0.22962848
Pd       0.75249883       0.52959090       9.91637973  T       0.00000000       0.00000000       0.00000000       0.02338599       0.00887534       0.01700677
Pd       2.33664072       3.48926389       9.76233680  T       0.00000000       0.00000000       0.00000000       0.00943325       0.00131359       0.00330305
Pd       3.86413047       6.72127844       9.91417658  T       0.00000000       0.00000000       0.00000000      -0.01406570       0.01073447       0.01271101
Pd       6.15173685       1.23034737       3.44535000  F       0.00000000       0.00000000       0.00000000      -0.00337449       0.00683504       0.05360206
Pd       4.28818081       0.63072761       5.40241929  F       0.00000000       0.00000000       0.00000000      -0.05235108       0.01833385       0.17226568
Pd       6.10413596       1.31744306       7.38498175  T       0.00000000       0.00000000       0.00000000       0.01023778      -0.00523263       0.00639237
Pd       5.53656316       3.07586842       1.50000000  F       0.00000000       0.00000000       0.00000000      -0.00075000      -0.00978304      -0.23338889
Pd       1.85444455       7.98478761       5.40627529  F       0.00000000       0.00000000       0.00000000       0.07245930       0.00089096       0.10638629
Pd       5.40175087       3.40577343       9.67934007  T       0.00000000       0.00000000       0.00000000      -0.01058247       0.00954538       0.01171881
Pd       3.07586842      10.45795264       1.50000000  F       0.00000000       0.00000000       0.00000000      -0.00481243      -0.00239062      -0.22814776
Pd       3.07586842       4.30621579       1.50000000  F       0.00000000       0.00000000       0.00000000      -0.00575721      -0.00283170      -0.22873441
Pd       3.08740598       4.30481233       5.43131114  T       0.00000000       0.00000000       0.00000000       0.02008979      -0.02103510       0.00846704
Pd      11.09107506       4.93512706       7.41701292  T       0.00000000       0.00000000       0.00000000       0.00044132       0.00377081       0.00043745
Pd      11.07312632      11.07312632       3.44535000  F       0.00000000       0.00000000       0.00000000      -0.08418705       0.02343374       0.06166067
Pd      10.00141364       0.56158938       9.92599080  T       0.00000000       0.00000000       0.00000000      -0.01006595       0.01458563      -0.00719903
Pd       6.90941275       0.52971178       9.90125208  T       0.00000000       0.00000000       0.00000000      -0.00624038      -0.02121569       0.01030307
Pd       8.49114985       9.64939321       9.75723867  T       0.00000000       0.00000000       0.00000000      -0.00998508      -0.00660457       0.00238893
Pd       0.77162242       6.69304218       9.91085784  T       0.00000000       0.00000000       0.00000000       0.02753392       0.00848943      -0.00126068
Pd       5.39857712       9.56854036       9.68069562  T       0.00000000       0.00000000       0.00000000      -0.00688554      -0.02799596      -0.00100963
Pd      11.54571385       3.45966485       9.95843713  T       0.00000000       0.00000000       0.00000000       0.00742469       0.01043068       0.00613885
Pd       8.48471005       3.48751627       9.76770181  T       0.00000000       0.00000000       0.00000000      -0.01297082       0.01072856      -0.01139032
Pd      10.01315807       6.72785055       9.91958954  T       0.00000000       0.00000000       0.00000000      -0.00227582       0.01326013       0.00488484
Pd       3.84571731       0.56813343       9.91039071  T       0.00000000       0.00000000       0.00000000      -0.01237330       0.00504779       0.00435338
Pd       2.33145657       9.64777176       9.75687038  T       0.00000000       0.00000000       0.00000000       0.01606545       0.00018447       0.00491642
Pd       4.93583650      11.12677024       7.39812160  T       0.00000000       0.00000000       0.00000000      -0.02521888      -0.02066139      -0.01117697
Pd      11.54940197       9.55218350       9.67911243  T       0.00000000       0.00000000       0.00000000       0.00898072       0.00014689       0.00715491
C       11.44377319       4.03797497      11.88093840  T       0.00000000       0.00000000       0.00000000       0.03949712       0.02378716       0.00777170
O       10.39730186       4.07862515      12.49495798  T       0.00000000       0.00000000       0.00000000       0.01721756       0.02097723      -0.02322590
O        0.37043639       4.36795101      12.32125069  T       0.00000000       0.00000000       0.00000000      -0.02420973      -0.01866639       0.01794293
C        0.45669373       4.89020191      13.69835485  T       0.00000000       0.00000000       0.00000000      -0.01851955       0.00398841      -0.03667922
H       -0.06953460       4.21580548      14.38842455  T       0.00000000       0.00000000       0.00000000      -0.00301136      -0.01466382      -0.00010085
H        1.53259669       4.92046191      13.90703154  T       0.00000000       0.00000000       0.00000000       0.01105434      -0.00104309      -0.00281748
H        0.01958462       5.89968414      13.73505427  T       0.00000000       0.00000000       0.00000000      -0.00887669      -0.00942934      -0.02933506
