119
Lattice="12.303473692417112 0.0 0.0 0.0 12.303473692417114 0.0 0.0 0.0 29.165420746594243" Properties=species:S:1:pos:R:3:move_mask:L:1:momenta:R:3:forces:R:3 idx=1842 E_MACE=-601.4605389455359 d_min=2.0086909739144714 d_reactive=1.3459548495809486 rank=3 dE_rel_meV=204.95011927675932 converged=T energy=-601.4605389455359 stress="0.005801421454511233 0.0003703858132125283 -1.8775858027222388e-05 0.0003703858132125283 0.004954717480060334 0.00016629840897895584 -1.8775858027222388e-05 0.00016629840897895584 -0.0032067448415152335" pbc="T T T"
O        8.48790922      11.64826144       9.34969420  T       0.00000000       0.00000000       0.00000000      -0.01582064      -0.00070771      -0.00583550
O       11.51450312       5.44190680       9.35641766  T       0.00000000       0.00000000       0.00000000       0.00577072       0.01830099       0.00617208
O       11.55855291       1.62349255      10.69306224  T       0.00000000       0.00000000       0.00000000      -0.01202516       0.00823462      -0.01503987
O       11.50334286      11.58790358       9.38455197  T       0.00000000       0.00000000       0.00000000      -0.00559790       0.00371715       0.00493761
O        8.45398976       7.88300742      10.53385306  T       0.00000000       0.00000000       0.00000000      -0.00665802      -0.00719263       0.00503536
O        5.35445758      11.58542134       9.36914182  T       0.00000000       0.00000000       0.00000000      -0.00916011       0.00496525       0.01749087
O        5.40953195       7.83963590      10.57183875  T       0.00000000       0.00000000       0.00000000       0.01005240      -0.00529130       0.00788583
O        8.48614679       5.49377213       9.35901301  T       0.00000000       0.00000000       0.00000000       0.01275274      -0.02152573      -0.00988909
O       11.57164082       7.84196799      10.57855601  T       0.00000000       0.00000000       0.00000000      -0.00544473      -0.00725247       0.00382403
O        2.33683743       5.47664079       9.35638079  T       0.00000000       0.00000000       0.00000000      -0.00033075       0.00497859      -0.00317757
O        2.30125384       1.70658474      10.55880656  T       0.00000000       0.00000000       0.00000000      -0.00926934       0.00181738      -0.00711615
O        2.30873347      11.63860846       9.35281301  T       0.00000000       0.00000000       0.00000000       0.02366039      -0.00649709      -0.00233340
O        5.36555270       5.43381995       9.38708408  T       0.00000000       0.00000000       0.00000000       0.00379222      -0.00893721      -0.00410880
O        5.39859422       1.67772189      10.57269245  T       0.00000000       0.00000000       0.00000000       0.00980039      -0.00829312       0.01832602
O        2.30555745       7.87083107      10.54452506  T       0.00000000       0.00000000       0.00000000       0.01907446       0.00009269       0.01077394
O        8.43528196       1.71916141      10.54063469  T       0.00000000       0.00000000       0.00000000       0.00838163       0.00448729       0.00817744
Pd       5.53656316       9.22760527       1.50000000  F       0.00000000       0.00000000       0.00000000      -0.00049941      -0.00940925      -0.23264005
Pd       6.11697921       7.46692285       7.38736150  T       0.00000000       0.00000000       0.00000000       0.00745875      -0.01523701       0.00010769
Pd       4.28815433       6.78245218       5.40241719  F       0.00000000       0.00000000       0.00000000      -0.02443322       0.01487861       0.19860044
Pd       6.15173685       7.38208422       3.44535000  F       0.00000000       0.00000000       0.00000000      -0.00242554       0.00547268       0.05279969
Pd       7.34015011       3.65326050       7.36111636  T       0.00000000       0.00000000       0.00000000       0.00378055       0.00310068       0.00204639
Pd       5.51948843       3.08419342       5.37702261  F       0.00000000       0.00000000       0.00000000      -0.00921583       0.03534815       0.28395097
Pd       6.76691053       5.53656316       1.50000000  F       0.00000000       0.00000000       0.00000000       0.00121816       0.00500826      -0.23279022
Pd       7.38208422       9.84277895       3.44535000  F       0.00000000       0.00000000       0.00000000       0.07740800       0.01411749       0.13100246
Pd       7.99725790       7.99725790       1.50000000  F       0.00000000       0.00000000       0.00000000      -0.00234015       0.01234635      -0.23343927
Pd       5.51951598       9.23590192       5.37700272  F       0.00000000       0.00000000       0.00000000      -0.03526569       0.03016964       0.26482002
Pd       8.00616182       7.98477587       5.40628129  F       0.00000000       0.00000000       0.00000000       0.08592558       0.03102054       0.09836121
Pd       6.76691053      11.68830001       1.50000000  F       0.00000000       0.00000000       0.00000000       0.00212116       0.00492186      -0.23322850
Pd       8.61243158       0.00000000       3.44535000  F       0.00000000       0.00000000       0.00000000       0.03485236      -0.05181495       0.11293564
Pd       6.75606179      11.70364973       5.37992114  F       0.00000000       0.00000000       0.00000000       0.05121786      -0.05383433       0.14224510
Pd       8.56168772       0.01295601       7.40181755  T       0.00000000       0.00000000       0.00000000       0.00806903      -0.01704000       0.00395256
Pd       9.84277895       8.61243158       3.44535000  F       0.00000000       0.00000000       0.00000000      -0.07114866       0.03994521       0.09329988
Pd       7.38208422       3.69104211       3.44535000  F       0.00000000       0.00000000       0.00000000       0.07640921       0.01304067       0.13146813
Pd       3.69104211       8.61243158       3.44535000  F       0.00000000       0.00000000       0.00000000      -0.07043532       0.04047934       0.09322700
Pd       9.83060548       8.63482681       7.50955337  T       0.00000000       0.00000000       0.00000000      -0.00493304      -0.00997406       0.00759087
Pd       9.22760527      10.45795264       1.50000000  F       0.00000000       0.00000000       0.00000000      -0.00534014      -0.00297204      -0.22714339
Pd       7.33611167       9.81335705       7.35655050  T       0.00000000       0.00000000       0.00000000      -0.00630460       0.00861480      -0.00174472
Pd       1.84552105       7.99725790       1.50000000  F       0.00000000       0.00000000       0.00000000      -0.00259281       0.01197857      -0.23269834
Pd      11.68830001       9.22760527       1.50000000  F       0.00000000       0.00000000       0.00000000      -0.00036377      -0.01006326      -0.23220161
Pd       0.60431863      11.70356305       5.37989931  F       0.00000000       0.00000000       0.00000000       0.03409367      -0.06981951       0.13171260
Pd       8.61243158       6.15173685       3.44535000  F       0.00000000       0.00000000       0.00000000       0.03758539      -0.05244199       0.11888414
Pd       6.75605293       5.55187564       5.37990856  F       0.00000000       0.00000000       0.00000000       0.06863895      -0.06665126       0.17080010
Pd       8.57289407       6.14637752       7.40546957  T       0.00000000       0.00000000       0.00000000      -0.01183444      -0.01103190       0.00863149
Pd       7.99725790       1.84552105       1.50000000  F       0.00000000       0.00000000       0.00000000      -0.00162723       0.01242138      -0.23363178
Pd       9.84277895       2.46069474       3.44535000  F       0.00000000       0.00000000       0.00000000      -0.07496267       0.03443566       0.07936281
Pd       8.00617313       1.83308050       5.40627808  F       0.00000000       0.00000000       0.00000000       0.05645719       0.03275837       0.06799642
Pd       9.83623194       2.47798987       7.52983904  T       0.00000000       0.00000000       0.00000000      -0.01042007       0.00158695      -0.00289357
Pd       9.22760527       4.30621579       1.50000000  F       0.00000000       0.00000000       0.00000000      -0.00490501      -0.00214218      -0.22669566
Pd       4.92138948       4.92138948       3.44535000  F       0.00000000       0.00000000       0.00000000      -0.07996927       0.02333641       0.05577208
Pd       9.23986112       4.29567450       5.43596596  T       0.00000000       0.00000000       0.00000000       0.00440153      -0.00614074       0.01578373
Pd       4.94400938       4.97635908       7.41154168  T       0.00000000       0.00000000       0.00000000      -0.01051000      -0.00446832      -0.01580368
Pd      10.45795264       6.76691053       1.50000000  F       0.00000000       0.00000000       0.00000000       0.00368676      -0.00653874      -0.23176466
Pd       0.00000000       7.38208422       3.44535000  F       0.00000000       0.00000000       0.00000000      -0.00337975       0.00507900       0.04871726
Pd      10.43991375       6.78245558       5.40242713  F       0.00000000       0.00000000       0.00000000      -0.05693295      -0.00128045       0.17042609
Pd      12.25736665       7.44527439       7.37672668  T       0.00000000       0.00000000       0.00000000      -0.00822254      -0.00298780       0.01496239
Pd       4.92138948      11.07312632       3.44535000  F       0.00000000       0.00000000       0.00000000      -0.08835864       0.02162883       0.06339397
Pd       1.23034737       9.84277895       3.44535000  F       0.00000000       0.00000000       0.00000000       0.07027964       0.01140376       0.12593650
Pd      11.67120661       9.23591801       5.37701028  F       0.00000000       0.00000000       0.00000000      -0.02729662       0.03534230       0.26161211
Pd       1.17620140       9.80040134       7.35791997  T       0.00000000       0.00000000       0.00000000       0.00780529       0.00351250       0.01109044
Pd       0.61517368      11.68830001       1.50000000  F       0.00000000       0.00000000       0.00000000       0.00170095       0.00525444      -0.23408054
Pd       2.46069474       0.00000000       3.44535000  F       0.00000000       0.00000000       0.00000000       0.03559452      -0.04925140       0.11349249
Pd       2.39668890       0.00376232       7.40446944  T       0.00000000       0.00000000       0.00000000       0.01645397      -0.00342892       0.00144016
Pd       9.24078294      10.45266364       5.43535487  T       0.00000000       0.00000000       0.00000000      -0.00240315       0.00711105       0.00693907
Pd       3.67252118       8.62573126       7.51475328  T       0.00000000       0.00000000       0.00000000       0.00173770       0.00300651      -0.00567438
Pd       4.30621579       0.61517368       1.50000000  F       0.00000000       0.00000000       0.00000000       0.00382097      -0.00600299      -0.23211456
Pd      11.07312632       4.92138948       3.44535000  F       0.00000000       0.00000000       0.00000000      -0.08946563       0.02773769       0.06022603
Pd       4.30621579       6.76691053       1.50000000  F       0.00000000       0.00000000       0.00000000       0.00313059      -0.00593360      -0.23340471
Pd       3.67226758       2.48043907       7.51496481  T       0.00000000       0.00000000       0.00000000      -0.00244342      -0.00955506       0.00197952
Pd       2.41326594       6.15175615       7.40845747  T       0.00000000       0.00000000       0.00000000      -0.00942862      -0.02736567       0.01571825
Pd       0.60433818       5.55187436       5.37993065  F       0.00000000       0.00000000       0.00000000       0.07172604      -0.08956596       0.14800370
Pd       2.46069474       6.15173685       3.44535000  F       0.00000000       0.00000000       0.00000000       0.03408136      -0.05199705       0.11536234
Pd       0.61517368       5.53656316       1.50000000  F       0.00000000       0.00000000       0.00000000       0.00162976       0.00487691      -0.23198913
Pd       1.18633723       3.66149317       7.36123290  T       0.00000000       0.00000000       0.00000000      -0.01265317      -0.00790191      -0.00256719
Pd      11.67123156       3.08419612       5.37703229  F       0.00000000       0.00000000       0.00000000      -0.01597874      -0.00204333       0.30626638
Pd       6.92737716       6.70382675       9.91164276  T       0.00000000       0.00000000       0.00000000      -0.03928284       0.00666072       0.01473670
Pd       1.23034737       3.69104211       3.44535000  F       0.00000000       0.00000000       0.00000000       0.08300406       0.01906129       0.12700975
Pd      12.26664433       1.31763925       7.39161183  T       0.00000000       0.00000000       0.00000000       0.00131733      -0.00147411      -0.00033143
Pd      10.43990395       0.63072067       5.40242717  F       0.00000000       0.00000000       0.00000000      -0.01596019       0.03604433       0.20698642
Pd       0.00000000       1.23034737       3.44535000  F       0.00000000       0.00000000       0.00000000      -0.00423738       0.00507709       0.04702295
Pd       1.84552105       1.84552105       1.50000000  F       0.00000000       0.00000000       0.00000000      -0.00243952       0.01241190      -0.23255287
Pd      10.45795264       0.61517368       1.50000000  F       0.00000000       0.00000000       0.00000000       0.00333984      -0.00544044      -0.23220626
Pd      11.09079152      11.13304880       7.40765684  T       0.00000000       0.00000000       0.00000000      -0.00488871       0.00273170       0.00818113
Pd       3.08377632      10.45181030       5.43474771  T       0.00000000       0.00000000       0.00000000       0.01678938      -0.00163380       0.01482707
Pd       3.69104211       2.46069474       3.44535000  F       0.00000000       0.00000000       0.00000000      -0.06963219       0.03836441       0.09034889
Pd       1.85442396       1.83305046       5.40626716  F       0.00000000       0.00000000       0.00000000       0.05916659       0.05405601       0.12001096
Pd      11.68830001       3.07586842       1.50000000  F       0.00000000       0.00000000       0.00000000       0.00002720      -0.00982849      -0.22987321
Pd       0.75977435       0.54621683       9.93058949  T       0.00000000       0.00000000       0.00000000       0.00246097       0.02010397       0.00390825
Pd       2.34963683       3.49387561       9.76989369  T       0.00000000       0.00000000       0.00000000       0.00939619       0.02026812      -0.01974241
Pd       3.86440907       6.72803035       9.92397169  T       0.00000000       0.00000000       0.00000000      -0.00292232       0.01264647      -0.00655212
Pd       6.15173685       1.23034737       3.44535000  F       0.00000000       0.00000000       0.00000000      -0.00286858       0.00524065       0.05203405
Pd       4.28818081       0.63072761       5.40241929  F       0.00000000       0.00000000       0.00000000      -0.05141126       0.01883842       0.19025560
Pd       6.10996041       1.31255286       7.38633161  T       0.00000000       0.00000000       0.00000000      -0.00182782       0.00230339      -0.00429682
Pd       5.53656316       3.07586842       1.50000000  F       0.00000000       0.00000000       0.00000000      -0.00054638      -0.00978690      -0.23311782
Pd       1.85444455       7.98478761       5.40627529  F       0.00000000       0.00000000       0.00000000       0.08410096       0.01864747       0.09351436
Pd       5.40230368       3.42015066       9.69723578  T       0.00000000       0.00000000       0.00000000      -0.01187507       0.00038538      -0.01176120
Pd       3.07586842      10.45795264       1.50000000  F       0.00000000       0.00000000       0.00000000      -0.00432278      -0.00243065      -0.22798984
Pd       3.07586842       4.30621579       1.50000000  F       0.00000000       0.00000000       0.00000000      -0.00621212      -0.00261527      -0.22844381
Pd       3.09304621       4.30125959       5.43433975  T       0.00000000       0.00000000       0.00000000      -0.00572986       0.00503373       0.00696684
Pd      11.09397651       4.93502482       7.40998096  T       0.00000000       0.00000000       0.00000000      -0.00504362       0.00213463       0.01537174
Pd      11.07312632      11.07312632       3.44535000  F       0.00000000       0.00000000       0.00000000      -0.08253894       0.02257924       0.06051731
Pd      10.00884389       0.59092091       9.93256975  T       0.00000000       0.00000000       0.00000000      -0.01217998      -0.01431977       0.00590260
Pd       6.91592662       0.54416698       9.90917452  T       0.00000000       0.00000000       0.00000000      -0.01350031      -0.00806335      -0.01546997
Pd       8.49558923       9.66997509       9.75914576  T       0.00000000       0.00000000       0.00000000       0.00819795      -0.00237738      -0.00489228
Pd       0.77749031       6.70587919       9.90313941  T       0.00000000       0.00000000       0.00000000      -0.00447767      -0.02471284       0.00720483
Pd       5.40129271       9.57422480       9.68167769  T       0.00000000       0.00000000       0.00000000      -0.00413350      -0.00638637       0.00503988
Pd      11.56206282       3.47678788       9.95835282  T       0.00000000       0.00000000       0.00000000      -0.01900994      -0.01730005      -0.00435877
Pd       8.48436901       3.51329609       9.76974564  T       0.00000000       0.00000000       0.00000000      -0.00323019      -0.01836213      -0.00186610
Pd      10.02022016       6.74870577       9.91003801  T       0.00000000       0.00000000       0.00000000      -0.01593314       0.00011058      -0.00818969
Pd       3.85088667       0.57416983       9.91730848  T       0.00000000       0.00000000       0.00000000       0.00179139      -0.02458844      -0.02531083
Pd       2.32917890       9.65882853       9.76590349  T       0.00000000       0.00000000       0.00000000       0.01308194       0.01016016      -0.01457346
Pd       4.92815281      11.12317512       7.39985800  T       0.00000000       0.00000000       0.00000000       0.00325523       0.00264125      -0.00412004
Pd      11.55829675       9.57530139       9.69227947  T       0.00000000       0.00000000       0.00000000      -0.00255616       0.01219400      -0.01816229
C       -0.80286319       4.09167476      11.86962914  T       0.00000000       0.00000000       0.00000000       0.03436031       0.02236302      -0.01776602
O       -1.84590113       4.26937898      12.46472449  T       0.00000000       0.00000000       0.00000000       0.00073755      -0.01208143       0.00915605
O        0.45004035       4.30120369      12.31451655  T       0.00000000       0.00000000       0.00000000       0.00946292      -0.01926892      -0.00358147
C        0.58650812       4.87792863      13.66328902  T       0.00000000       0.00000000       0.00000000       0.00301203       0.00003267      -0.00942690
H        0.23878604       4.15432514      14.41517557  T       0.00000000       0.00000000       0.00000000      -0.02093209      -0.00860367      -0.00789319
H        1.66242012       5.06511310      13.76283794  T       0.00000000       0.00000000       0.00000000       0.00387256       0.00696897       0.00127048
H        0.01248945       5.81365857      13.72710361  T       0.00000000       0.00000000       0.00000000      -0.01385495      -0.00172321      -0.00732199
