119
Lattice="12.303473692417112 0.0 0.0 0.0 12.303473692417114 0.0 0.0 0.0 29.165420746594243" Properties=species:S:1:pos:R:3:move_mask:L:1:momenta:R:3:forces:R:3 idx=5420 E_MACE=-601.4579751176389 d_min=2.0077977638390583 d_reactive=1.346686902852459 rank=4 dE_rel_meV=207.5139471737657 converged=T energy=-601.4579751176389 stress="0.005845377770431987 0.0003451329903679162 -0.00012618194753167818 0.0003451329903679162 0.004987976899448513 0.0001554307431933048 -0.00012618194753167818 0.0001554307431933048 -0.003240804578531731" pbc="T T T"
O        8.46689201      11.63618928       9.35517119  T       0.00000000       0.00000000       0.00000000       0.01680749       0.00381075       0.01717134
O       11.49968154       5.42395698       9.37005659  T       0.00000000       0.00000000       0.00000000      -0.00432868      -0.00050526       0.01652684
O       11.53816117       1.68115440      10.58864013  T       0.00000000       0.00000000       0.00000000       0.01711944       0.00414126       0.00663323
O       11.49665748      11.58484782       9.38273748  T       0.00000000       0.00000000       0.00000000       0.00535565       0.00069362       0.01637164
O        8.44718220       7.86284622      10.54166138  T       0.00000000       0.00000000       0.00000000      -0.00381089      -0.00137694      -0.01464929
O        5.34505191      11.61012784       9.35716304  T       0.00000000       0.00000000       0.00000000      -0.01019764       0.00272221       0.01168850
O        5.39780141       7.78455870      10.67298512  T       0.00000000       0.00000000       0.00000000       0.00830493      -0.00676660       0.01199903
O        8.45714864       5.48491376       9.35280716  T       0.00000000       0.00000000       0.00000000      -0.00460646      -0.02156301      -0.00437138
O       11.54750769       7.82636784      10.56126195  T       0.00000000       0.00000000       0.00000000       0.00508765       0.00317178       0.00676787
O        2.33099088       5.48554748       9.34800587  T       0.00000000       0.00000000       0.00000000      -0.01009097       0.00515630       0.00359173
O        2.27508271       1.72808659      10.55441767  T       0.00000000       0.00000000       0.00000000      -0.00429139      -0.01602484      -0.00836900
O        2.31628995      11.64618355       9.36721605  T       0.00000000       0.00000000       0.00000000       0.01780730      -0.00771126      -0.00399733
O        5.34579688       5.43282292       9.38527747  T       0.00000000       0.00000000       0.00000000      -0.00588895       0.00519789       0.00231905
O        5.39972866       1.69311200      10.59810223  T       0.00000000       0.00000000       0.00000000       0.00339206      -0.01076898      -0.00507416
O        2.27730516       7.86447487      10.53222558  T       0.00000000       0.00000000       0.00000000      -0.00624340       0.01425613       0.01314529
O        8.44560139       1.72122330      10.55750805  T       0.00000000       0.00000000       0.00000000       0.00288549      -0.00051250       0.00023813
Pd       5.53656316       9.22760527       1.50000000  F       0.00000000       0.00000000       0.00000000       0.00012354      -0.00987742      -0.22952633
Pd       6.11145910       7.46246191       7.38430139  T       0.00000000       0.00000000       0.00000000       0.00365682      -0.00012288       0.00951668
Pd       4.28815433       6.78245218       5.40241719  F       0.00000000       0.00000000       0.00000000      -0.03033849       0.02461717       0.20098018
Pd       6.15173685       7.38208422       3.44535000  F       0.00000000       0.00000000       0.00000000      -0.00350786       0.00433791       0.04573733
Pd       7.32470003       3.64555569       7.36229223  T       0.00000000       0.00000000       0.00000000       0.00922700       0.00146261      -0.00365725
Pd       5.51948843       3.08419342       5.37702261  F       0.00000000       0.00000000       0.00000000      -0.02414470       0.02678159       0.27521516
Pd       6.76691053       5.53656316       1.50000000  F       0.00000000       0.00000000       0.00000000       0.00169726       0.00524393      -0.23392852
Pd       7.38208422       9.84277895       3.44535000  F       0.00000000       0.00000000       0.00000000       0.08108716       0.01910809       0.12363061
Pd       7.99725790       7.99725790       1.50000000  F       0.00000000       0.00000000       0.00000000      -0.00271769       0.01276506      -0.23299464
Pd       5.51951598       9.23590192       5.37700272  F       0.00000000       0.00000000       0.00000000      -0.03905142       0.00952635       0.29830524
Pd       8.00616182       7.98477587       5.40628129  F       0.00000000       0.00000000       0.00000000       0.05857112       0.04266674       0.11939967
Pd       6.76691053      11.68830001       1.50000000  F       0.00000000       0.00000000       0.00000000       0.00201461       0.00498979      -0.23223845
Pd       8.61243158       0.00000000       3.44535000  F       0.00000000       0.00000000       0.00000000       0.03548038      -0.05286565       0.11564890
Pd       6.75606179      11.70364973       5.37992114  F       0.00000000       0.00000000       0.00000000       0.04745078      -0.09336471       0.14457569
Pd       8.55189308      -0.01176385       7.40954578  T       0.00000000       0.00000000       0.00000000       0.01298419       0.02137175      -0.01972981
Pd       9.84277895       8.61243158       3.44535000  F       0.00000000       0.00000000       0.00000000      -0.06973735       0.03846762       0.08969006
Pd       7.38208422       3.69104211       3.44535000  F       0.00000000       0.00000000       0.00000000       0.07519264       0.01537911       0.13187376
Pd       3.69104211       8.61243158       3.44535000  F       0.00000000       0.00000000       0.00000000      -0.07521965       0.03752129       0.08263026
Pd       9.81782746       8.62846297       7.51502572  T       0.00000000       0.00000000       0.00000000      -0.00075561       0.00511554      -0.01022892
Pd       9.22760527      10.45795264       1.50000000  F       0.00000000       0.00000000       0.00000000      -0.00591209      -0.00261132      -0.22828431
Pd       7.32416965       9.80827602       7.36210423  T       0.00000000       0.00000000       0.00000000       0.01007910      -0.00335087      -0.00854647
Pd       1.84552105       7.99725790       1.50000000  F       0.00000000       0.00000000       0.00000000      -0.00188262       0.01251750      -0.23406366
Pd      11.68830001       9.22760527       1.50000000  F       0.00000000       0.00000000       0.00000000      -0.00065057      -0.00986434      -0.23314144
Pd       0.60431863      11.70356305       5.37989931  F       0.00000000       0.00000000       0.00000000       0.05907364      -0.06116728       0.17159642
Pd       8.61243158       6.15173685       3.44535000  F       0.00000000       0.00000000       0.00000000       0.03803804      -0.05487064       0.11860564
Pd       6.75605293       5.55187564       5.37990856  F       0.00000000       0.00000000       0.00000000       0.04100691      -0.09188585       0.13667753
Pd       8.55243491       6.14874711       7.40473497  T       0.00000000       0.00000000       0.00000000      -0.00683347       0.00456410      -0.01920667
Pd       7.99725790       1.84552105       1.50000000  F       0.00000000       0.00000000       0.00000000      -0.00277412       0.01226419      -0.23284390
Pd       9.84277895       2.46069474       3.44535000  F       0.00000000       0.00000000       0.00000000      -0.07070142       0.04173867       0.09450459
Pd       8.00617313       1.83308050       5.40627808  F       0.00000000       0.00000000       0.00000000       0.06992774       0.01399673       0.10397062
Pd       9.82021500       2.46491268       7.51231649  T       0.00000000       0.00000000       0.00000000       0.00521953       0.00737754       0.00866637
Pd       9.22760527       4.30621579       1.50000000  F       0.00000000       0.00000000       0.00000000      -0.00479383      -0.00247986      -0.22776025
Pd       4.92138948       4.92138948       3.44535000  F       0.00000000       0.00000000       0.00000000      -0.08309412       0.02220869       0.06074263
Pd       9.23797947       4.29880012       5.43760068  T       0.00000000       0.00000000       0.00000000      -0.00712801      -0.00422381      -0.00142533
Pd       4.93512542       4.97712603       7.41026581  T       0.00000000       0.00000000       0.00000000       0.00325929      -0.00888375      -0.00518055
Pd      10.45795264       6.76691053       1.50000000  F       0.00000000       0.00000000       0.00000000       0.00374437      -0.00595748      -0.23211630
Pd       0.00000000       7.38208422       3.44535000  F       0.00000000       0.00000000       0.00000000      -0.00243077       0.00545575       0.05261997
Pd      10.43991375       6.78245558       5.40242713  F       0.00000000       0.00000000       0.00000000      -0.05625005       0.00961165       0.19228314
Pd      12.25983834       7.46419870       7.38330085  T       0.00000000       0.00000000       0.00000000      -0.00041692      -0.00104636       0.00421068
Pd       4.92138948      11.07312632       3.44535000  F       0.00000000       0.00000000       0.00000000      -0.09348088       0.02717515       0.06676797
Pd       1.23034737       9.84277895       3.44535000  F       0.00000000       0.00000000       0.00000000       0.07632400       0.01288537       0.12972232
Pd      11.67120661       9.23591801       5.37701028  F       0.00000000       0.00000000       0.00000000      -0.01680459       0.03859520       0.28147560
Pd       1.18306203       9.80843334       7.36381943  T       0.00000000       0.00000000       0.00000000       0.00275523      -0.01618694      -0.00821690
Pd       0.61517368      11.68830001       1.50000000  F       0.00000000       0.00000000       0.00000000       0.00149503       0.00503727      -0.23296402
Pd       2.46069474       0.00000000       3.44535000  F       0.00000000       0.00000000       0.00000000       0.03911164      -0.05356100       0.12096294
Pd       2.41136460      -0.01031382       7.41228659  T       0.00000000       0.00000000       0.00000000       0.01048438       0.00542900      -0.00318347
Pd       9.24222728      10.45097354       5.43486353  T       0.00000000       0.00000000       0.00000000      -0.00708261       0.00791935       0.00093364
Pd       3.67970717       8.62974225       7.52833359  T       0.00000000       0.00000000       0.00000000      -0.00071994      -0.00017544      -0.00095459
Pd       4.30621579       0.61517368       1.50000000  F       0.00000000       0.00000000       0.00000000       0.00357544      -0.00654041      -0.23191764
Pd      11.07312632       4.92138948       3.44535000  F       0.00000000       0.00000000       0.00000000      -0.08953745       0.02219717       0.06375222
Pd       4.30621579       6.76691053       1.50000000  F       0.00000000       0.00000000       0.00000000       0.00347530      -0.00573706      -0.23221022
Pd       3.67288245       2.47614848       7.51093034  T       0.00000000       0.00000000       0.00000000       0.00265144      -0.00114969       0.01430927
Pd       2.40823553       6.16131482       7.40197842  T       0.00000000       0.00000000       0.00000000       0.00627213      -0.01099022       0.00084574
Pd       0.60433818       5.55187436       5.37993065  F       0.00000000       0.00000000       0.00000000       0.05359107      -0.06000668       0.13919605
Pd       2.46069474       6.15173685       3.44535000  F       0.00000000       0.00000000       0.00000000       0.03704103      -0.05494729       0.11610995
Pd       0.61517368       5.53656316       1.50000000  F       0.00000000       0.00000000       0.00000000       0.00221956       0.00489622      -0.23317076
Pd       1.18272719       3.66063211       7.35823382  T       0.00000000       0.00000000       0.00000000       0.00096341      -0.00099667      -0.01327658
Pd      11.67123156       3.08419612       5.37703229  F       0.00000000       0.00000000       0.00000000      -0.02667393       0.01538599       0.26856958
Pd       6.90393342       6.70053136       9.91940788  T       0.00000000       0.00000000       0.00000000       0.02812804       0.01872413       0.01703580
Pd       1.23034737       3.69104211       3.44535000  F       0.00000000       0.00000000       0.00000000       0.08037158       0.01558641       0.13320330
Pd      12.27065916       1.31388645       7.39208130  T       0.00000000       0.00000000       0.00000000      -0.00776177      -0.00773116      -0.00706639
Pd      10.43990395       0.63072067       5.40242717  F       0.00000000       0.00000000       0.00000000      -0.03634121       0.00899814       0.20416805
Pd       0.00000000       1.23034737       3.44535000  F       0.00000000       0.00000000       0.00000000      -0.00082244       0.00591053       0.05245889
Pd       1.84552105       1.84552105       1.50000000  F       0.00000000       0.00000000       0.00000000      -0.00244460       0.01249420      -0.23353488
Pd      10.45795264       0.61517368       1.50000000  F       0.00000000       0.00000000       0.00000000       0.00311412      -0.00611158      -0.23339879
Pd      11.08644655      11.12890256       7.40690864  T       0.00000000       0.00000000       0.00000000      -0.00127446      -0.00123715      -0.00992759
Pd       3.08554112      10.44718258       5.43755914  T       0.00000000       0.00000000       0.00000000       0.01372101      -0.00011655       0.00812603
Pd       3.69104211       2.46069474       3.44535000  F       0.00000000       0.00000000       0.00000000      -0.07104090       0.04008606       0.09366227
Pd       1.85442396       1.83305046       5.40626716  F       0.00000000       0.00000000       0.00000000       0.07894702       0.02315843       0.10656673
Pd      11.68830001       3.07586842       1.50000000  F       0.00000000       0.00000000       0.00000000      -0.00094208      -0.00965681      -0.23263628
Pd       0.75068048       0.54675676       9.92661195  T       0.00000000       0.00000000       0.00000000       0.02345545       0.00791867      -0.01386224
Pd       2.33023167       3.50820876       9.76420631  T       0.00000000       0.00000000       0.00000000       0.00004023       0.00839200       0.00425744
Pd       3.84969445       6.74074190       9.92522278  T       0.00000000       0.00000000       0.00000000       0.00430038      -0.03809399      -0.00216491
Pd       6.15173685       1.23034737       3.44535000  F       0.00000000       0.00000000       0.00000000      -0.00195640       0.00584053       0.04794668
Pd       4.28818081       0.63072761       5.40241929  F       0.00000000       0.00000000       0.00000000      -0.07104594      -0.01001892       0.18215270
Pd       6.10183433       1.29083126       7.38057771  T       0.00000000       0.00000000       0.00000000      -0.00587563       0.01850339      -0.00423983
Pd       5.53656316       3.07586842       1.50000000  F       0.00000000       0.00000000       0.00000000      -0.00082793      -0.01020894      -0.23250597
Pd       1.85444455       7.98478761       5.40627529  F       0.00000000       0.00000000       0.00000000       0.05097816       0.03445157       0.07448410
Pd       5.39335939       3.42088712       9.70084517  T       0.00000000       0.00000000       0.00000000      -0.00295384       0.01599400      -0.02382232
Pd       3.07586842      10.45795264       1.50000000  F       0.00000000       0.00000000       0.00000000      -0.00488983      -0.00217473      -0.22681275
Pd       3.07586842       4.30621579       1.50000000  F       0.00000000       0.00000000       0.00000000      -0.00550424      -0.00286768      -0.22687250
Pd       3.09048881       4.30000880       5.43673578  T       0.00000000       0.00000000       0.00000000      -0.01278297       0.00510159      -0.00022881
Pd      11.08368200       4.96497730       7.40055293  T       0.00000000       0.00000000       0.00000000      -0.00645109       0.00459444      -0.00220947
Pd      11.07312632      11.07312632       3.44535000  F       0.00000000       0.00000000       0.00000000      -0.08284134       0.02335857       0.05964634
Pd       9.99659359       0.57798050       9.92656027  T       0.00000000       0.00000000       0.00000000      -0.00024013      -0.02149542       0.00023648
Pd       6.91092961       0.56264786       9.91053745  T       0.00000000       0.00000000       0.00000000       0.00239282       0.01745142      -0.00119512
Pd       8.49078439       9.65418638       9.76138585  T       0.00000000       0.00000000       0.00000000      -0.00259972      -0.01445481       0.00970454
Pd       0.75876106       6.68741331       9.90301081  T       0.00000000       0.00000000       0.00000000      -0.00722904      -0.00190818      -0.00700651
Pd       5.39732776       9.64117172       9.95319682  T       0.00000000       0.00000000       0.00000000      -0.00406754      -0.02019502      -0.01996910
Pd      11.53659759       3.41283709       9.69209601  T       0.00000000       0.00000000       0.00000000       0.00122472       0.01612267      -0.00948605
Pd       8.47988237       3.50510020       9.76964646  T       0.00000000       0.00000000       0.00000000      -0.00595557       0.01598312      -0.01020009
Pd       9.99871267       6.72476272       9.90428967  T       0.00000000       0.00000000       0.00000000      -0.00557199       0.00772809       0.02486045
Pd       3.84548152       0.60396430       9.92293581  T       0.00000000       0.00000000       0.00000000      -0.00470859      -0.02798539      -0.01305911
Pd       2.32745095       9.66165650       9.77019164  T       0.00000000       0.00000000       0.00000000      -0.02530728       0.01149745      -0.00709899
Pd       4.93372112      11.08872286       7.41310234  T       0.00000000       0.00000000       0.00000000      -0.01011217       0.00706973      -0.01281067
Pd      11.54392951       9.57046013       9.68661606  T       0.00000000       0.00000000       0.00000000      -0.00876182      -0.00984780       0.00610948
C        5.32221585      10.27954987      11.85532284  T       0.00000000       0.00000000       0.00000000      -0.01252464       0.00612843       0.01809833
O        4.27498923      10.38729787      12.46102296  T       0.00000000       0.00000000       0.00000000       0.04864869      -0.00504195      -0.00979265
O        6.56017039      -1.70452680      12.27843004  T       0.00000000       0.00000000       0.00000000      -0.01285535      -0.00729121       0.01839812
C        6.65321801      -1.01294031      13.57860501  T       0.00000000       0.00000000       0.00000000       0.01335608      -0.00978371      -0.01432626
H        6.13378412      -1.59555458      14.35318764  T       0.00000000       0.00000000       0.00000000       0.00085260       0.00333171      -0.01394733
H        7.73156033      -0.95371140      13.77228282  T       0.00000000       0.00000000       0.00000000      -0.01818093      -0.01038688       0.00051374
H        6.21632921      -0.00713905      13.48464044  T       0.00000000       0.00000000       0.00000000      -0.01811473      -0.01748439      -0.00640576
