119
Lattice="12.303473692417112 0.0 0.0 0.0 12.303473692417114 0.0 0.0 0.0 29.165420746594243" Properties=species:S:1:pos:R:3:move_mask:L:1:momenta:R:3:forces:R:3 idx=1843 E_MACE=-601.4554301430985 d_min=2.0101078124764014 d_reactive=1.3466314017338086 rank=9 dE_rel_meV=210.05892171410778 converged=T energy=-601.4554301430985 stress="0.005826646307156514 0.0003561216927355172 -4.248209178585613e-05 0.0003561216927355172 0.005003896950410424 0.00012860956357430318 -4.248209178585613e-05 0.00012860956357430318 -0.00315595579632791" pbc="T T T"
O        8.48548191      11.64297951       9.34969381  T       0.00000000       0.00000000       0.00000000      -0.00549304       0.00494643       0.00851637
O       11.51075573       5.44805672       9.35778233  T       0.00000000       0.00000000       0.00000000       0.00516636      -0.03461391       0.01256684
O       11.55069036       1.62876246      10.69756440  T       0.00000000       0.00000000       0.00000000       0.00774453      -0.00082691       0.00609797
O       11.50014935      11.59137805       9.39760566  T       0.00000000       0.00000000       0.00000000       0.00179554       0.00269654      -0.02459188
O        8.44456154       7.87794800      10.53879409  T       0.00000000       0.00000000       0.00000000       0.02407371       0.00324631      -0.01137467
O        5.34757255      11.57434325       9.37092407  T       0.00000000       0.00000000       0.00000000       0.00452008       0.01656540       0.02039223
O        5.40892176       7.82983377      10.57582265  T       0.00000000       0.00000000       0.00000000      -0.01563453      -0.00229616       0.00706710
O        8.48720826       5.48806102       9.35888729  T       0.00000000       0.00000000       0.00000000      -0.00709692      -0.02384701       0.00324938
O       11.57116601       7.84338640      10.57889552  T       0.00000000       0.00000000       0.00000000      -0.01408093      -0.01488670       0.00473522
O        2.33571811       5.47742029       9.34962047  T       0.00000000       0.00000000       0.00000000      -0.01103954       0.01049044      -0.01141822
O        2.30377742       1.71240580      10.55120857  T       0.00000000       0.00000000       0.00000000      -0.02118441       0.00556634      -0.00301423
O        2.30289988      11.63823861       9.35501474  T       0.00000000       0.00000000       0.00000000       0.00742667      -0.00060474      -0.00747619
O        5.36739262       5.42229011       9.38801725  T       0.00000000       0.00000000       0.00000000      -0.01912101       0.00826757      -0.01054338
O        5.39552228       1.66744323      10.57674604  T       0.00000000       0.00000000       0.00000000       0.00198065      -0.00225751       0.01154359
O        2.30926053       7.86512943      10.54336243  T       0.00000000       0.00000000       0.00000000       0.01298455       0.04188200      -0.00418073
O        8.42400778       1.71207212      10.54386013  T       0.00000000       0.00000000       0.00000000       0.01292912       0.01847889       0.00337753
Pd       5.53656316       9.22760527       1.50000000  F       0.00000000       0.00000000       0.00000000      -0.00074103      -0.00971485      -0.23266873
Pd       6.11886188       7.46217849       7.38674761  T       0.00000000       0.00000000       0.00000000       0.00096029      -0.00355613       0.00983807
Pd       4.28815433       6.78245218       5.40241719  F       0.00000000       0.00000000       0.00000000      -0.02414138       0.00328562       0.19917839
Pd       6.15173685       7.38208422       3.44535000  F       0.00000000       0.00000000       0.00000000      -0.00254565       0.00442313       0.05313723
Pd       7.34230792       3.65558301       7.35897027  T       0.00000000       0.00000000       0.00000000      -0.00532045      -0.00383874       0.00742623
Pd       5.51948843       3.08419342       5.37702261  F       0.00000000       0.00000000       0.00000000      -0.00884886       0.02763504       0.28062384
Pd       6.76691053       5.53656316       1.50000000  F       0.00000000       0.00000000       0.00000000       0.00168107       0.00515727      -0.23265637
Pd       7.38208422       9.84277895       3.44535000  F       0.00000000       0.00000000       0.00000000       0.08086501       0.01522409       0.13425586
Pd       7.99725790       7.99725790       1.50000000  F       0.00000000       0.00000000       0.00000000      -0.00245049       0.01290080      -0.23378831
Pd       5.51951598       9.23590192       5.37700272  F       0.00000000       0.00000000       0.00000000      -0.03296827       0.02229425       0.26408615
Pd       8.00616182       7.98477587       5.40628129  F       0.00000000       0.00000000       0.00000000       0.09382473       0.03458469       0.10463393
Pd       6.76691053      11.68830001       1.50000000  F       0.00000000       0.00000000       0.00000000       0.00230759       0.00481379      -0.23315978
Pd       8.61243158       0.00000000       3.44535000  F       0.00000000       0.00000000       0.00000000       0.03471482      -0.05198411       0.11277484
Pd       6.75606179      11.70364973       5.37992114  F       0.00000000       0.00000000       0.00000000       0.05325177      -0.05344728       0.14064364
Pd       8.56510089       0.00682604       7.40274744  T       0.00000000       0.00000000       0.00000000      -0.00411973       0.00022443       0.00473721
Pd       9.84277895       8.61243158       3.44535000  F       0.00000000       0.00000000       0.00000000      -0.07248659       0.04154429       0.09572822
Pd       7.38208422       3.69104211       3.44535000  F       0.00000000       0.00000000       0.00000000       0.08212711       0.01620086       0.13629747
Pd       3.69104211       8.61243158       3.44535000  F       0.00000000       0.00000000       0.00000000      -0.07118066       0.04261869       0.09473805
Pd       9.83042692       8.63923438       7.51184544  T       0.00000000       0.00000000       0.00000000      -0.00612489      -0.01196051      -0.00286475
Pd       9.22760527      10.45795264       1.50000000  F       0.00000000       0.00000000       0.00000000      -0.00546625      -0.00316004      -0.22716157
Pd       7.33318570       9.81396683       7.35502366  T       0.00000000       0.00000000       0.00000000       0.00409391      -0.00821911       0.00752761
Pd       1.84552105       7.99725790       1.50000000  F       0.00000000       0.00000000       0.00000000      -0.00275715       0.01239550      -0.23293234
Pd      11.68830001       9.22760527       1.50000000  F       0.00000000       0.00000000       0.00000000      -0.00075100      -0.01035496      -0.23277705
Pd       0.60431863      11.70356305       5.37989931  F       0.00000000       0.00000000       0.00000000       0.03544118      -0.07505032       0.13886059
Pd       8.61243158       6.15173685       3.44535000  F       0.00000000       0.00000000       0.00000000       0.03992794      -0.05800791       0.12646232
Pd       6.75605293       5.55187564       5.37990856  F       0.00000000       0.00000000       0.00000000       0.07773806      -0.06725288       0.16860834
Pd       8.57478526       6.14787486       7.40880876  T       0.00000000       0.00000000       0.00000000      -0.01377375      -0.00773952      -0.00952471
Pd       7.99725790       1.84552105       1.50000000  F       0.00000000       0.00000000       0.00000000      -0.00173950       0.01242423      -0.23373998
Pd       9.84277895       2.46069474       3.44535000  F       0.00000000       0.00000000       0.00000000      -0.07561805       0.03740021       0.08222663
Pd       8.00617313       1.83308050       5.40627808  F       0.00000000       0.00000000       0.00000000       0.06040209       0.02486383       0.06529260
Pd       9.83205465       2.47331117       7.53158510  T       0.00000000       0.00000000       0.00000000       0.01172931       0.00339188      -0.00665006
Pd       9.22760527       4.30621579       1.50000000  F       0.00000000       0.00000000       0.00000000      -0.00522069      -0.00214062      -0.22657927
Pd       4.92138948       4.92138948       3.44535000  F       0.00000000       0.00000000       0.00000000      -0.08419745       0.02263978       0.05914162
Pd       9.24150061       4.29409094       5.43984068  T       0.00000000       0.00000000       0.00000000       0.00052747       0.00797175      -0.01029160
Pd       4.94499705       4.96990765       7.41148172  T       0.00000000       0.00000000       0.00000000      -0.00970692       0.00192226      -0.00687025
Pd      10.45795264       6.76691053       1.50000000  F       0.00000000       0.00000000       0.00000000       0.00371240      -0.00678608      -0.23180961
Pd       0.00000000       7.38208422       3.44535000  F       0.00000000       0.00000000       0.00000000      -0.00335431       0.00527228       0.04795985
Pd      10.43991375       6.78245558       5.40242713  F       0.00000000       0.00000000       0.00000000      -0.05853325      -0.00321683       0.17970969
Pd      12.25522247       7.44518094       7.37850405  T       0.00000000       0.00000000       0.00000000       0.00287741      -0.00314766       0.00321736
Pd       4.92138948      11.07312632       3.44535000  F       0.00000000       0.00000000       0.00000000      -0.08936779       0.02212820       0.06285450
Pd       1.23034737       9.84277895       3.44535000  F       0.00000000       0.00000000       0.00000000       0.07529581       0.01290427       0.13174967
Pd      11.67120661       9.23591801       5.37701028  F       0.00000000       0.00000000       0.00000000      -0.02289402       0.03801458       0.27648165
Pd       1.17407399       9.80121878       7.36090571  T       0.00000000       0.00000000       0.00000000       0.01515777      -0.00504020      -0.00389673
Pd       0.61517368      11.68830001       1.50000000  F       0.00000000       0.00000000       0.00000000       0.00159083       0.00505117      -0.23390107
Pd       2.46069474       0.00000000       3.44535000  F       0.00000000       0.00000000       0.00000000       0.03583429      -0.05294469       0.11764853
Pd       2.39760079       0.00197248       7.40549462  T       0.00000000       0.00000000       0.00000000      -0.00092859      -0.00722749      -0.00015311
Pd       9.24334821      10.45420655       5.43596321  T       0.00000000       0.00000000       0.00000000      -0.01395886      -0.00761378       0.00435838
Pd       3.67334332       8.62334518       7.51482793  T       0.00000000       0.00000000       0.00000000      -0.00459610      -0.00623051      -0.00848051
Pd       4.30621579       0.61517368       1.50000000  F       0.00000000       0.00000000       0.00000000       0.00378356      -0.00603051      -0.23220670
Pd      11.07312632       4.92138948       3.44535000  F       0.00000000       0.00000000       0.00000000      -0.09292576       0.02743139       0.06473672
Pd       4.30621579       6.76691053       1.50000000  F       0.00000000       0.00000000       0.00000000       0.00320632      -0.00613203      -0.23304610
Pd       3.67493041       2.47176596       7.51842552  T       0.00000000       0.00000000       0.00000000      -0.01058672       0.01215508      -0.01770362
Pd       2.41159646       6.14191736       7.39994630  T       0.00000000       0.00000000       0.00000000      -0.01181940       0.00833914       0.04300024
Pd       0.60433818       5.55187436       5.37993065  F       0.00000000       0.00000000       0.00000000       0.05628098      -0.09900086       0.14853017
Pd       2.46069474       6.15173685       3.44535000  F       0.00000000       0.00000000       0.00000000       0.03642349      -0.05647478       0.11822657
Pd       0.61517368       5.53656316       1.50000000  F       0.00000000       0.00000000       0.00000000       0.00215755       0.00507578      -0.23192553
Pd       1.17904213       3.65201217       7.36187280  T       0.00000000       0.00000000       0.00000000       0.01439890       0.02064116      -0.00192558
Pd      11.67123156       3.08419612       5.37703229  F       0.00000000       0.00000000       0.00000000      -0.02078794      -0.01192668       0.31163877
Pd       6.92357656       6.69525679       9.91577574  T       0.00000000       0.00000000       0.00000000       0.00551282      -0.01335925      -0.00996430
Pd       1.23034737       3.69104211       3.44535000  F       0.00000000       0.00000000       0.00000000       0.08460677       0.01985040       0.12659317
Pd      12.26486579       1.31457290       7.39517691  T       0.00000000       0.00000000       0.00000000      -0.00366451      -0.00379636      -0.02150294
Pd      10.43990395       0.63072067       5.40242717  F       0.00000000       0.00000000       0.00000000      -0.01127873       0.03806800       0.21132343
Pd       0.00000000       1.23034737       3.44535000  F       0.00000000       0.00000000       0.00000000      -0.00413725       0.00425958       0.04671835
Pd       1.84552105       1.84552105       1.50000000  F       0.00000000       0.00000000       0.00000000      -0.00245292       0.01283921      -0.23298571
Pd      10.45795264       0.61517368       1.50000000  F       0.00000000       0.00000000       0.00000000       0.00344896      -0.00568936      -0.23236056
Pd      11.09324396      11.13880649       7.41399741  T       0.00000000       0.00000000       0.00000000      -0.00521068      -0.00956881       0.00932664
Pd       3.08609781      10.45147063       5.43717428  T       0.00000000       0.00000000       0.00000000      -0.00600680      -0.00417062       0.00345479
Pd       3.69104211       2.46069474       3.44535000  F       0.00000000       0.00000000       0.00000000      -0.06913258       0.03962806       0.08990014
Pd       1.85442396       1.83305046       5.40626716  F       0.00000000       0.00000000       0.00000000       0.05379845       0.03951079       0.12346130
Pd      11.68830001       3.07586842       1.50000000  F       0.00000000       0.00000000       0.00000000       0.00000064      -0.00965825      -0.22991202
Pd       0.75562883       0.55398939       9.93325915  T       0.00000000       0.00000000       0.00000000       0.00197696      -0.00745994       0.00034627
Pd       2.35526675       3.49910614       9.76073673  T       0.00000000       0.00000000       0.00000000      -0.01372258      -0.02060219       0.02313681
Pd       3.86440385       6.72274358       9.91708018  T       0.00000000       0.00000000       0.00000000       0.02530485       0.00988266       0.01925667
Pd       6.15173685       1.23034737       3.44535000  F       0.00000000       0.00000000       0.00000000      -0.00254619       0.00556659       0.05321886
Pd       4.28818081       0.63072761       5.40241929  F       0.00000000       0.00000000       0.00000000      -0.04860989       0.01826268       0.19533169
Pd       6.11475074       1.31274250       7.38592241  T       0.00000000       0.00000000       0.00000000      -0.00286048      -0.00762292      -0.00030784
Pd       5.53656316       3.07586842       1.50000000  F       0.00000000       0.00000000       0.00000000      -0.00119748      -0.01003598      -0.23343141
Pd       1.85444455       7.98478761       5.40627529  F       0.00000000       0.00000000       0.00000000       0.07742735       0.02845708       0.10129171
Pd       5.40255814       3.41063863       9.70289203  T       0.00000000       0.00000000       0.00000000      -0.00854975       0.01276697      -0.02400757
Pd       3.07586842      10.45795264       1.50000000  F       0.00000000       0.00000000       0.00000000      -0.00451307      -0.00257505      -0.22775265
Pd       3.07586842       4.30621579       1.50000000  F       0.00000000       0.00000000       0.00000000      -0.00631459      -0.00231996      -0.22807215
Pd       3.09240598       4.29788256       5.43645868  T       0.00000000       0.00000000       0.00000000      -0.00192924       0.00224329      -0.00641978
Pd      11.09212542       4.93318308       7.41325003  T       0.00000000       0.00000000       0.00000000      -0.00107100      -0.00357810       0.00138379
Pd      11.07312632      11.07312632       3.44535000  F       0.00000000       0.00000000       0.00000000      -0.08008951       0.02278159       0.05827021
Pd      10.00241381       0.58897083       9.94275682  T       0.00000000       0.00000000       0.00000000      -0.01547822      -0.02220915      -0.01932058
Pd       6.90965272       0.53588869       9.90834746  T       0.00000000       0.00000000       0.00000000      -0.00436741      -0.02854405      -0.00915835
Pd       8.49148044       9.66488802       9.76035864  T       0.00000000       0.00000000       0.00000000      -0.00589496      -0.01372986      -0.00020819
Pd       0.77658666       6.70571947       9.90185580  T       0.00000000       0.00000000       0.00000000       0.00969242       0.00102578      -0.01195461
Pd       5.39663126       9.56505731       9.68719337  T       0.00000000       0.00000000       0.00000000       0.00145222       0.00518276      -0.00729515
Pd      11.54804939       3.48298726       9.97162063  T       0.00000000       0.00000000       0.00000000       0.01525926       0.00748217      -0.02206304
Pd       8.48178412       3.50414680       9.76796247  T       0.00000000       0.00000000       0.00000000      -0.01455502       0.00816412       0.01593547
Pd      10.01653320       6.74831068       9.91092122  T       0.00000000       0.00000000       0.00000000      -0.02229250       0.03579018       0.01816431
Pd       3.84744390       0.56926666       9.91435342  T       0.00000000       0.00000000       0.00000000       0.00501042      -0.00828366      -0.00057381
Pd       2.33264229       9.65654027       9.76576597  T       0.00000000       0.00000000       0.00000000      -0.00389627      -0.00950852       0.00130634
Pd       4.92852427      11.12252520       7.40067737  T       0.00000000       0.00000000       0.00000000       0.00258871       0.00557763      -0.00046520
Pd      11.55732604       9.57724417       9.69230978  T       0.00000000       0.00000000       0.00000000      -0.00450201      -0.00767437      -0.00300975
C       -0.84800772       4.11667210      11.87698287  T       0.00000000       0.00000000       0.00000000      -0.00071048       0.00157740      -0.02011110
O       -1.90197339       4.22066440      12.47141400  T       0.00000000       0.00000000       0.00000000       0.03956978       0.00154344      -0.01497007
O        0.38715948       4.42418250      12.31654569  T       0.00000000       0.00000000       0.00000000      -0.03394031      -0.02124618      -0.00752971
C        0.47359935       5.10186407      13.62283225  T       0.00000000       0.00000000       0.00000000      -0.01112450      -0.00099627       0.01837977
H       -0.22701950       4.64625243      14.33638702  T       0.00000000       0.00000000       0.00000000      -0.01589283      -0.01240827      -0.02195629
H        1.51382877       4.95950955      13.93687269  T       0.00000000       0.00000000       0.00000000       0.03946008      -0.00277645      -0.00403029
H        0.24978341       6.17002827      13.48174307  T       0.00000000       0.00000000       0.00000000      -0.01453893       0.00181583      -0.01200120
