119
Lattice="12.303473692417112 0.0 0.0 0.0 12.303473692417114 0.0 0.0 0.0 29.165420746594243" Properties=species:S:1:pos:R:3:move_mask:L:1:momenta:R:3:forces:R:3 idx=10742 E_MACE=-601.4566046151886 d_min=2.009917031864638 d_reactive=1.3466889632423633 rank=6 dE_rel_meV=208.88444962406538 converged=T energy=-601.4566046151886 stress="0.005820000163822035 0.00031520826803530904 -0.00017235465581109347 0.00031520826803530904 0.0049670837473408756 0.00011973399012041269 -0.00017235465581109347 0.00011973399012041269 -0.003209987262078398" pbc="T T T"
O        8.46534649      11.62598778       9.34901521  T       0.00000000       0.00000000       0.00000000      -0.00489782       0.03244837       0.00880599
O       11.49987153       5.44370028       9.35722284  T       0.00000000       0.00000000       0.00000000      -0.00182554      -0.01085662       0.00057868
O       11.52355214       1.62126018      10.68301053  T       0.00000000       0.00000000       0.00000000       0.00688499      -0.01274886       0.00326834
O       11.48565722      11.58551963       9.38876460  T       0.00000000       0.00000000       0.00000000       0.02089936      -0.00745081       0.00409404
O        8.43191655       7.86446979      10.55166332  T       0.00000000       0.00000000       0.00000000       0.00730733       0.00727539      -0.00752026
O        5.33596944      11.56756572       9.38023368  T       0.00000000       0.00000000       0.00000000      -0.00044824       0.00634448      -0.00357323
O        5.39895912       7.82519320      10.58525974  T       0.00000000       0.00000000       0.00000000      -0.02121775      -0.00942194      -0.00040997
O        8.47014229       5.48386994       9.35234593  T       0.00000000       0.00000000       0.00000000      -0.00310148      -0.02027673       0.00566466
O       11.55073245       7.83837120      10.58401027  T       0.00000000       0.00000000       0.00000000       0.00426105       0.02214762      -0.01955471
O        2.31867532       5.47924151       9.35912190  T       0.00000000       0.00000000       0.00000000      -0.00000278       0.00373223       0.00551434
O        2.28865974       1.70870589      10.53903787  T       0.00000000       0.00000000       0.00000000      -0.01010439      -0.01227182       0.02052143
O        2.29442289      11.63796531       9.35655569  T       0.00000000       0.00000000       0.00000000      -0.00399727      -0.01067104      -0.01641945
O        5.34525586       5.42763717       9.38347962  T       0.00000000       0.00000000       0.00000000      -0.00974777      -0.02408653      -0.00045421
O        5.38340795       1.66991938      10.57380237  T       0.00000000       0.00000000       0.00000000       0.01894318       0.00031422      -0.00019710
O        2.29395093       7.87114974      10.54472330  T       0.00000000       0.00000000       0.00000000      -0.01434789      -0.00363479       0.00683165
O        8.41248207       1.70694792      10.54053159  T       0.00000000       0.00000000       0.00000000      -0.00191714       0.00272809       0.00322296
Pd       5.53656316       9.22760527       1.50000000  F       0.00000000       0.00000000       0.00000000      -0.00062892      -0.00958267      -0.23272906
Pd       6.10753825       7.46227006       7.38965031  T       0.00000000       0.00000000       0.00000000       0.01088499      -0.00125515      -0.00035777
Pd       4.28815433       6.78245218       5.40241719  F       0.00000000       0.00000000       0.00000000      -0.04456241       0.00792626       0.19685458
Pd       6.15173685       7.38208422       3.44535000  F       0.00000000       0.00000000       0.00000000      -0.00131110       0.00474839       0.05203875
Pd       7.33776816       3.65448410       7.35625734  T       0.00000000       0.00000000       0.00000000      -0.01915245       0.00027566      -0.01880428
Pd       5.51948843       3.08419342       5.37702261  F       0.00000000       0.00000000       0.00000000      -0.01966420       0.02134160       0.27422289
Pd       6.76691053       5.53656316       1.50000000  F       0.00000000       0.00000000       0.00000000       0.00173549       0.00505452      -0.23236824
Pd       7.38208422       9.84277895       3.44535000  F       0.00000000       0.00000000       0.00000000       0.07778686       0.01400567       0.13036570
Pd       7.99725790       7.99725790       1.50000000  F       0.00000000       0.00000000       0.00000000      -0.00234810       0.01249534      -0.23350108
Pd       5.51951598       9.23590192       5.37700272  F       0.00000000       0.00000000       0.00000000      -0.04092083       0.02685020       0.26406493
Pd       8.00616182       7.98477587       5.40628129  F       0.00000000       0.00000000       0.00000000       0.07379599       0.02214695       0.10528446
Pd       6.76691053      11.68830001       1.50000000  F       0.00000000       0.00000000       0.00000000       0.00207352       0.00491111      -0.23330456
Pd       8.61243158       0.00000000       3.44535000  F       0.00000000       0.00000000       0.00000000       0.03658841      -0.05310345       0.11655637
Pd       6.75606179      11.70364973       5.37992114  F       0.00000000       0.00000000       0.00000000       0.04116950      -0.06061032       0.14213777
Pd       8.55577235       0.00111913       7.40375830  T       0.00000000       0.00000000       0.00000000       0.00869796       0.00205012       0.00010802
Pd       9.84277895       8.61243158       3.44535000  F       0.00000000       0.00000000       0.00000000      -0.06928393       0.04000191       0.09193937
Pd       7.38208422       3.69104211       3.44535000  F       0.00000000       0.00000000       0.00000000       0.07935825       0.01440369       0.13290819
Pd       3.69104211       8.61243158       3.44535000  F       0.00000000       0.00000000       0.00000000      -0.06990769       0.04175389       0.09446457
Pd       9.82542721       8.63102536       7.51178987  T       0.00000000       0.00000000       0.00000000       0.00038209      -0.00081585       0.00102333
Pd       9.22760527      10.45795264       1.50000000  F       0.00000000       0.00000000       0.00000000      -0.00536631      -0.00304527      -0.22704106
Pd       7.32975299       9.80713813       7.35714137  T       0.00000000       0.00000000       0.00000000       0.00702267      -0.00082882      -0.00357302
Pd       1.84552105       7.99725790       1.50000000  F       0.00000000       0.00000000       0.00000000      -0.00268371       0.01207324      -0.23257081
Pd      11.68830001       9.22760527       1.50000000  F       0.00000000       0.00000000       0.00000000      -0.00049989      -0.01027607      -0.23233215
Pd       0.60431863      11.70356305       5.37989931  F       0.00000000       0.00000000       0.00000000       0.02790117      -0.08288297       0.13320003
Pd       8.61243158       6.15173685       3.44535000  F       0.00000000       0.00000000       0.00000000       0.03799290      -0.05373015       0.12033356
Pd       6.75605293       5.55187564       5.37990856  F       0.00000000       0.00000000       0.00000000       0.05892360      -0.06220354       0.15816155
Pd       8.56051194       6.14646305       7.40643709  T       0.00000000       0.00000000       0.00000000       0.00611506      -0.00265138      -0.01226656
Pd       7.99725790       1.84552105       1.50000000  F       0.00000000       0.00000000       0.00000000      -0.00180692       0.01267159      -0.23395060
Pd       9.84277895       2.46069474       3.44535000  F       0.00000000       0.00000000       0.00000000      -0.07562113       0.03519422       0.07852660
Pd       8.00617313       1.83308050       5.40627808  F       0.00000000       0.00000000       0.00000000       0.05465150       0.01809859       0.06729011
Pd       9.82962030       2.46936722       7.52405412  T       0.00000000       0.00000000       0.00000000       0.00537778       0.00003127       0.00507078
Pd       9.22760527       4.30621579       1.50000000  F       0.00000000       0.00000000       0.00000000      -0.00507535      -0.00211208      -0.22679967
Pd       4.92138948       4.92138948       3.44535000  F       0.00000000       0.00000000       0.00000000      -0.08323463       0.02356321       0.05850363
Pd       9.24183065       4.29597260       5.43707835  T       0.00000000       0.00000000       0.00000000      -0.00690142      -0.00303853       0.00305784
Pd       4.93632908       4.96886821       7.40593850  T       0.00000000       0.00000000       0.00000000      -0.00562410       0.00951361       0.00859716
Pd      10.45795264       6.76691053       1.50000000  F       0.00000000       0.00000000       0.00000000       0.00342050      -0.00647899      -0.23221710
Pd       0.00000000       7.38208422       3.44535000  F       0.00000000       0.00000000       0.00000000      -0.00196898       0.00612083       0.04917668
Pd      10.43991375       6.78245558       5.40242713  F       0.00000000       0.00000000       0.00000000      -0.05263431      -0.00046794       0.18821717
Pd      12.25681547       7.44409880       7.38434143  T       0.00000000       0.00000000       0.00000000      -0.00408024       0.00423351       0.00854837
Pd       4.92138948      11.07312632       3.44535000  F       0.00000000       0.00000000       0.00000000      -0.08701256       0.02314340       0.06343437
Pd       1.23034737       9.84277895       3.44535000  F       0.00000000       0.00000000       0.00000000       0.07214827       0.01310624       0.12871855
Pd      11.67120661       9.23591801       5.37701028  F       0.00000000       0.00000000       0.00000000      -0.03019103       0.02492566       0.28027011
Pd       1.17026185       9.80307235       7.36010013  T       0.00000000       0.00000000       0.00000000       0.00496497      -0.00839070      -0.00910119
Pd       0.61517368      11.68830001       1.50000000  F       0.00000000       0.00000000       0.00000000       0.00181630       0.00515808      -0.23397376
Pd       2.46069474       0.00000000       3.44535000  F       0.00000000       0.00000000       0.00000000       0.03635325      -0.05108894       0.11309495
Pd       2.39842271      -0.00103664       7.40550741  T       0.00000000       0.00000000       0.00000000       0.00378519      -0.00343375      -0.00099334
Pd       9.24068155      10.45094564       5.43588426  T       0.00000000       0.00000000       0.00000000      -0.00489048       0.00752812       0.00381567
Pd       3.66439719       8.62753741       7.51151609  T       0.00000000       0.00000000       0.00000000       0.01116265      -0.00784618       0.00295786
Pd       4.30621579       0.61517368       1.50000000  F       0.00000000       0.00000000       0.00000000       0.00363506      -0.00603926      -0.23250559
Pd      11.07312632       4.92138948       3.44535000  F       0.00000000       0.00000000       0.00000000      -0.08848038       0.02875140       0.06089333
Pd       4.30621579       6.76691053       1.50000000  F       0.00000000       0.00000000       0.00000000       0.00318701      -0.00605106      -0.23320423
Pd       3.66989863       2.47234167       7.51328849  T       0.00000000       0.00000000       0.00000000      -0.01209388       0.00773498       0.00831181
Pd       2.40577536       6.14598480       7.41040823  T       0.00000000       0.00000000       0.00000000      -0.00001530      -0.00522352      -0.00907759
Pd       0.60433818       5.55187436       5.37993065  F       0.00000000       0.00000000       0.00000000       0.05481704      -0.09199401       0.16676729
Pd       2.46069474       6.15173685       3.44535000  F       0.00000000       0.00000000       0.00000000       0.03593139      -0.05205123       0.11594267
Pd       0.61517368       5.53656316       1.50000000  F       0.00000000       0.00000000       0.00000000       0.00144787       0.00484729      -0.23206377
Pd       1.18023234       3.65602676       7.36551963  T       0.00000000       0.00000000       0.00000000      -0.00822665       0.00073731      -0.01746388
Pd      11.67123156       3.08419612       5.37703229  F       0.00000000       0.00000000       0.00000000      -0.01123726       0.00114010       0.30840492
Pd       6.90828765       6.68474027       9.92044647  T       0.00000000       0.00000000       0.00000000       0.00644603       0.03145169       0.01338685
Pd       1.23034737       3.69104211       3.44535000  F       0.00000000       0.00000000       0.00000000       0.08286345       0.01880992       0.12600093
Pd      12.26556767       1.31169281       7.38630833  T       0.00000000       0.00000000       0.00000000      -0.00263099       0.00384381       0.00993302
Pd      10.43990395       0.63072067       5.40242717  F       0.00000000       0.00000000       0.00000000      -0.03214178       0.01474903       0.20621314
Pd       0.00000000       1.23034737       3.44535000  F       0.00000000       0.00000000       0.00000000      -0.00278929       0.00432739       0.04652235
Pd       1.84552105       1.84552105       1.50000000  F       0.00000000       0.00000000       0.00000000      -0.00269942       0.01251542      -0.23263425
Pd      10.45795264       0.61517368       1.50000000  F       0.00000000       0.00000000       0.00000000       0.00336727      -0.00555929      -0.23202470
Pd      11.08341769      11.13176576       7.41183795  T       0.00000000       0.00000000       0.00000000       0.00646744       0.00167969      -0.02134248
Pd       3.08518659      10.45227020       5.43550280  T       0.00000000       0.00000000       0.00000000       0.00140646      -0.00471234       0.00930884
Pd       3.69104211       2.46069474       3.44535000  F       0.00000000       0.00000000       0.00000000      -0.06984999       0.04058267       0.09238152
Pd       1.85442396       1.83305046       5.40626716  F       0.00000000       0.00000000       0.00000000       0.05767622       0.05005856       0.11651842
Pd      11.68830001       3.07586842       1.50000000  F       0.00000000       0.00000000       0.00000000      -0.00021666      -0.00976881      -0.22973207
Pd       0.74079607       0.55011782       9.92459145  T       0.00000000       0.00000000       0.00000000       0.00076390       0.01121181       0.00743972
Pd       2.33838722       3.49984737       9.76934263  T       0.00000000       0.00000000       0.00000000      -0.01415490       0.00132818      -0.01623302
Pd       3.84753410       6.72775524       9.92302940  T       0.00000000       0.00000000       0.00000000       0.04377800      -0.00142696      -0.00625640
Pd       6.15173685       1.23034737       3.44535000  F       0.00000000       0.00000000       0.00000000      -0.00258800       0.00657465       0.05337656
Pd       4.28818081       0.63072761       5.40241929  F       0.00000000       0.00000000       0.00000000      -0.04438000       0.01108597       0.19927542
Pd       6.11341399       1.31233797       7.38893365  T       0.00000000       0.00000000       0.00000000      -0.01640313      -0.00266666      -0.00720780
Pd       5.53656316       3.07586842       1.50000000  F       0.00000000       0.00000000       0.00000000      -0.00103540      -0.00988935      -0.23313289
Pd       1.85444455       7.98478761       5.40627529  F       0.00000000       0.00000000       0.00000000       0.06554913       0.01873882       0.10726032
Pd       5.38064073       3.41394019       9.69626285  T       0.00000000       0.00000000       0.00000000       0.01574645      -0.00987193      -0.00135943
Pd       3.07586842      10.45795264       1.50000000  F       0.00000000       0.00000000       0.00000000      -0.00467050      -0.00255150      -0.22797535
Pd       3.07586842       4.30621579       1.50000000  F       0.00000000       0.00000000       0.00000000      -0.00614259      -0.00270031      -0.22822274
Pd       3.09051242       4.30072094       5.43528377  T       0.00000000       0.00000000       0.00000000      -0.00862143      -0.00019482      -0.00355261
Pd      11.08751808       4.93259536       7.41194531  T       0.00000000       0.00000000       0.00000000       0.00587719       0.00588061       0.00110833
Pd      11.07312632      11.07312632       3.44535000  F       0.00000000       0.00000000       0.00000000      -0.08403146       0.02355712       0.06231777
Pd       9.98384210       0.57599961       9.93266247  T       0.00000000       0.00000000       0.00000000      -0.00341013      -0.00919344      -0.00588756
Pd       6.89509244       0.52735355       9.91184497  T       0.00000000       0.00000000       0.00000000       0.01409217       0.00738548      -0.00113430
Pd       8.47538642       9.65043449       9.76653053  T       0.00000000       0.00000000       0.00000000      -0.00828284      -0.01791654      -0.00322037
Pd       0.76065914       6.70105245       9.91695731  T       0.00000000       0.00000000       0.00000000       0.01384520       0.00240350      -0.00336579
Pd       5.38745616       9.55669813       9.68861951  T       0.00000000       0.00000000       0.00000000       0.00341798       0.00629714      -0.00043827
Pd      11.51469484       3.47427048       9.95661022  T       0.00000000       0.00000000       0.00000000       0.00635746       0.01575276       0.00302318
Pd       8.46108030       3.49926619       9.75852479  T       0.00000000       0.00000000       0.00000000       0.00291606      -0.00802887       0.01318697
Pd      10.00239210       6.74935215       9.89945349  T       0.00000000       0.00000000       0.00000000      -0.00161229      -0.00203061       0.00441492
Pd       3.83798912       0.56604046       9.91553555  T       0.00000000       0.00000000       0.00000000      -0.02443025       0.00724312      -0.01088949
Pd       2.31843053       9.65769947       9.76649259  T       0.00000000       0.00000000       0.00000000      -0.00251891       0.00767700      -0.00630522
Pd       4.93141290      11.12268416       7.40347925  T       0.00000000       0.00000000       0.00000000      -0.00639415       0.00549482       0.00224924
Pd      11.54605937       9.57319766       9.69436717  T       0.00000000       0.00000000       0.00000000      -0.01955082      -0.03307347       0.00217504
C       11.48120946       4.10092347      11.86604764  T       0.00000000       0.00000000       0.00000000      -0.00191265      -0.01337543       0.00552455
O       12.50148622       4.26313982      12.50264832  T       0.00000000       0.00000000       0.00000000       0.01285744       0.00750074      -0.00331129
O       10.21340243       4.34336753      12.25004942  T       0.00000000       0.00000000       0.00000000      -0.00568280       0.01465198      -0.00282845
C       10.00544010       5.02599003      13.54110127  T       0.00000000       0.00000000       0.00000000       0.01691411      -0.00135583       0.02728986
H        9.68800443       4.27683234      14.28186082  T       0.00000000       0.00000000       0.00000000       0.01224363      -0.02076729      -0.03192804
H       10.93291881       5.52191368      13.85684539  T       0.00000000       0.00000000       0.00000000       0.00393594      -0.00649853      -0.00894207
H        9.20332226       5.75224044      13.35363858  T       0.00000000       0.00000000       0.00000000      -0.00476204      -0.00412726      -0.01442018
