119
Lattice="12.303473692417112 0.0 0.0 0.0 12.303473692417114 0.0 0.0 0.0 29.165420746594243" Properties=species:S:1:pos:R:3:move_mask:L:1:momenta:R:3:forces:R:3 idx=5288 E_MACE=-598.8080005120809 d_min=1.534485520091906 d_reactive=3.3708957492506926 rank=11596 dE_rel_meV=2857.488552731752 converged=T energy=-598.8080005120809 stress="0.005416622778132913 0.0002410621394363688 -0.0002475578666143049 0.0002410621394363688 0.0048921724816041404 -1.1659518114452786e-05 -0.0002475578666143049 -1.1659518114452786e-05 -0.0032635705301953706" pbc="T T T"
O        8.45291910      11.57393852       9.36126599  T       0.00000000       0.00000000       0.00000000       0.00190950      -0.00174575      -0.00515654
O       11.47284846       5.38961381       9.37111370  T       0.00000000       0.00000000       0.00000000       0.01403768      -0.00542017       0.01431161
O       11.52349900       1.63776155      10.57731712  T       0.00000000       0.00000000       0.00000000       0.01200306      -0.01886808       0.00116967
O       11.48373887      11.53388425       9.38369502  T       0.00000000       0.00000000       0.00000000       0.01921193       0.00767746       0.00548293
O        8.40507569       7.80304315      10.55011423  T       0.00000000       0.00000000       0.00000000       0.00800118       0.01712007      -0.00192732
O        5.33138058      11.54049143       9.38107536  T       0.00000000       0.00000000       0.00000000      -0.00239241       0.01513191       0.00789481
O        5.39894699       7.78909769      10.59801995  T       0.00000000       0.00000000       0.00000000       0.00584046      -0.02162455      -0.01607528
O        8.43002932       5.41452118       9.33718177  T       0.00000000       0.00000000       0.00000000       0.00444570      -0.01033078       0.00852363
O       11.46521080       7.77380073      10.59534608  T       0.00000000       0.00000000       0.00000000       0.01494244      -0.00937080      -0.02242001
O        2.28947120       5.46886691       9.40771012  T       0.00000000       0.00000000       0.00000000      -0.00294808       0.00210539       0.00008001
O        2.26899253       1.68655788      10.53048275  T       0.00000000       0.00000000       0.00000000       0.01009585       0.00287782       0.02653230
O        2.30687607      11.62586587       9.32348396  T       0.00000000       0.00000000       0.00000000      -0.00610437       0.02909327       0.00937770
O        5.30801383       5.39398792       9.37076638  T       0.00000000       0.00000000       0.00000000       0.00030328      -0.00406111       0.00825379
O        5.38928638       1.64237829      10.57951358  T       0.00000000       0.00000000       0.00000000       0.00464548      -0.01145756      -0.00090237
O        2.27233763       7.82948166      10.76992253  T       0.00000000       0.00000000       0.00000000       0.01721294      -0.00072994      -0.00633322
O        8.42292974       1.65780409      10.54976203  T       0.00000000       0.00000000       0.00000000       0.00497791       0.00645344      -0.00752251
Pd       5.53656316       9.22760527       1.50000000  F       0.00000000       0.00000000       0.00000000      -0.00079254      -0.00932808      -0.23242475
Pd       6.10710686       7.45770052       7.39285901  T       0.00000000       0.00000000       0.00000000       0.00474218       0.00218708       0.00690788
Pd       4.28815433       6.78245218       5.40241719  F       0.00000000       0.00000000       0.00000000      -0.07386423      -0.00044988       0.21405961
Pd       6.15173685       7.38208422       3.44535000  F       0.00000000       0.00000000       0.00000000      -0.00091083       0.00584519       0.05142712
Pd       7.32115027       3.64706855       7.34833367  T       0.00000000       0.00000000       0.00000000       0.00226446       0.00050806       0.00565861
Pd       5.51948843       3.08419342       5.37702261  F       0.00000000       0.00000000       0.00000000      -0.06141192       0.00154807       0.25346660
Pd       6.76691053       5.53656316       1.50000000  F       0.00000000       0.00000000       0.00000000       0.00280368       0.00484417      -0.23272089
Pd       7.38208422       9.84277895       3.44535000  F       0.00000000       0.00000000       0.00000000       0.07610909       0.01366760       0.12714903
Pd       7.99725790       7.99725790       1.50000000  F       0.00000000       0.00000000       0.00000000      -0.00237151       0.01234463      -0.23207532
Pd       5.51951598       9.23590192       5.37700272  F       0.00000000       0.00000000       0.00000000      -0.03820874       0.00123343       0.26022606
Pd       8.00616182       7.98477587       5.40628129  F       0.00000000       0.00000000       0.00000000       0.06333666       0.00564324       0.07867664
Pd       6.76691053      11.68830001       1.50000000  F       0.00000000       0.00000000       0.00000000       0.00282682       0.00518150      -0.23426679
Pd       8.61243158       0.00000000       3.44535000  F       0.00000000       0.00000000       0.00000000       0.03524137      -0.04729139       0.11523944
Pd       6.75606179      11.70364973       5.37992114  F       0.00000000       0.00000000       0.00000000       0.03945037      -0.05822366       0.15560927
Pd       8.55776404      -0.01684405       7.41427864  T       0.00000000       0.00000000       0.00000000      -0.00751975       0.00913039      -0.00296314
Pd       9.84277895       8.61243158       3.44535000  F       0.00000000       0.00000000       0.00000000      -0.06607512       0.03778914       0.09002636
Pd       7.38208422       3.69104211       3.44535000  F       0.00000000       0.00000000       0.00000000       0.06806465       0.01109313       0.11801392
Pd       3.69104211       8.61243158       3.44535000  F       0.00000000       0.00000000       0.00000000      -0.06525651       0.03882702       0.08485097
Pd       9.81685303       8.60727844       7.50364335  T       0.00000000       0.00000000       0.00000000       0.00302731       0.00486630      -0.00422081
Pd       9.22760527      10.45795264       1.50000000  F       0.00000000       0.00000000       0.00000000      -0.00597479      -0.00284944      -0.22769752
Pd       7.33290830       9.80375830       7.34913635  T       0.00000000       0.00000000       0.00000000      -0.00466238      -0.00109072       0.00672451
Pd       1.84552105       7.99725790       1.50000000  F       0.00000000       0.00000000       0.00000000      -0.00220136       0.01255853      -0.23450602
Pd      11.68830001       9.22760527       1.50000000  F       0.00000000       0.00000000       0.00000000      -0.00050052      -0.00988845      -0.23321611
Pd       0.60431863      11.70356305       5.37989931  F       0.00000000       0.00000000       0.00000000       0.02747647      -0.07734920       0.13544832
Pd       8.61243158       6.15173685       3.44535000  F       0.00000000       0.00000000       0.00000000       0.03411615      -0.04673823       0.11001887
Pd       6.75605293       5.55187564       5.37990856  F       0.00000000       0.00000000       0.00000000       0.01455203      -0.05974135       0.13335027
Pd       8.54922632       6.13669480       7.39891896  T       0.00000000       0.00000000       0.00000000       0.00074900       0.00829290      -0.00074480
Pd       7.99725790       1.84552105       1.50000000  F       0.00000000       0.00000000       0.00000000      -0.00216467       0.01241940      -0.23417762
Pd       9.84277895       2.46069474       3.44535000  F       0.00000000       0.00000000       0.00000000      -0.06669086       0.03267959       0.07940877
Pd       8.00617313       1.83308050       5.40627808  F       0.00000000       0.00000000       0.00000000       0.06036089      -0.02484585       0.10018518
Pd       9.81479483       2.45836302       7.50588837  T       0.00000000       0.00000000       0.00000000       0.00227479       0.00536920       0.00280599
Pd       9.22760527       4.30621579       1.50000000  F       0.00000000       0.00000000       0.00000000      -0.00494856      -0.00244733      -0.22724863
Pd       4.92138948       4.92138948       3.44535000  F       0.00000000       0.00000000       0.00000000      -0.08851014       0.02738006       0.06490016
Pd       9.23904711       4.29625061       5.43044382  T       0.00000000       0.00000000       0.00000000      -0.00381355       0.00396135       0.01177225
Pd       4.91812772       4.96797042       7.39745191  T       0.00000000       0.00000000       0.00000000       0.00475102      -0.00125802      -0.01131821
Pd      10.45795264       6.76691053       1.50000000  F       0.00000000       0.00000000       0.00000000       0.00287012      -0.00548643      -0.23262252
Pd       0.00000000       7.38208422       3.44535000  F       0.00000000       0.00000000       0.00000000      -0.00299070       0.00633648       0.05560579
Pd      10.43991375       6.78245558       5.40242713  F       0.00000000       0.00000000       0.00000000      -0.02943644      -0.00595026       0.18853080
Pd      12.26975723       7.45461420       7.40314945  T       0.00000000       0.00000000       0.00000000       0.00616665       0.00258472       0.00924691
Pd       4.92138948      11.07312632       3.44535000  F       0.00000000       0.00000000       0.00000000      -0.09459706       0.02217176       0.06965946
Pd       1.23034737       9.84277895       3.44535000  F       0.00000000       0.00000000       0.00000000       0.07420481       0.01395193       0.12575282
Pd      11.67120661       9.23591801       5.37701028  F       0.00000000       0.00000000       0.00000000      -0.00532449      -0.00893531       0.29477815
Pd       1.19133853       9.79747069       7.36620692  T       0.00000000       0.00000000       0.00000000       0.01255600      -0.00269926       0.02795054
Pd       0.61517368      11.68830001       1.50000000  F       0.00000000       0.00000000       0.00000000       0.00205983       0.00427623      -0.23242863
Pd       2.46069474       0.00000000       3.44535000  F       0.00000000       0.00000000       0.00000000       0.04032332      -0.06234456       0.12106670
Pd       2.40717710       0.00139364       7.38377493  T       0.00000000       0.00000000       0.00000000      -0.00854047      -0.00290727      -0.00397274
Pd       9.24174112      10.45183605       5.43340685  T       0.00000000       0.00000000       0.00000000      -0.00605317      -0.00344960       0.00496867
Pd       3.66088120       8.60160811       7.51804879  T       0.00000000       0.00000000       0.00000000      -0.00591815       0.01099517      -0.01030509
Pd       4.30621579       0.61517368       1.50000000  F       0.00000000       0.00000000       0.00000000       0.00306258      -0.00629799      -0.23269373
Pd      11.07312632       4.92138948       3.44535000  F       0.00000000       0.00000000       0.00000000      -0.08219164       0.02847996       0.05567853
Pd       4.30621579       6.76691053       1.50000000  F       0.00000000       0.00000000       0.00000000       0.00311413      -0.00540987      -0.23334745
Pd       3.66732683       2.47000028       7.51321831  T       0.00000000       0.00000000       0.00000000       0.00087845      -0.00249371      -0.01096980
Pd       2.39612444       6.14684164       7.43889459  T       0.00000000       0.00000000       0.00000000      -0.00637519      -0.00668986      -0.00336257
Pd       0.60433818       5.55187436       5.37993065  F       0.00000000       0.00000000       0.00000000       0.06624928      -0.02719332       0.17602626
Pd       2.46069474       6.15173685       3.44535000  F       0.00000000       0.00000000       0.00000000       0.03296536      -0.04689099       0.11516897
Pd       0.61517368       5.53656316       1.50000000  F       0.00000000       0.00000000       0.00000000       0.00131323       0.00493990      -0.23408439
Pd       1.18309233       3.66041520       7.35426212  T       0.00000000       0.00000000       0.00000000      -0.00383798      -0.00891207       0.00660647
Pd      11.67123156       3.08419612       5.37703229  F       0.00000000       0.00000000       0.00000000      -0.02371518      -0.00072073       0.25771795
Pd       6.88368540       6.63152539       9.91805665  T       0.00000000       0.00000000       0.00000000      -0.00161140       0.01974137       0.00651491
Pd       1.23034737       3.69104211       3.44535000  F       0.00000000       0.00000000       0.00000000       0.07810055       0.01156097       0.13033975
Pd      12.26425698       1.31012116       7.39077231  T       0.00000000       0.00000000       0.00000000      -0.00342072      -0.00051950      -0.00049084
Pd      10.43990395       0.63072067       5.40242717  F       0.00000000       0.00000000       0.00000000      -0.03917316      -0.01530703       0.20457217
Pd       0.00000000       1.23034737       3.44535000  F       0.00000000       0.00000000       0.00000000      -0.00394779       0.00790516       0.05059248
Pd       1.84552105       1.84552105       1.50000000  F       0.00000000       0.00000000       0.00000000      -0.00291067       0.01280392      -0.23339290
Pd      10.45795264       0.61517368       1.50000000  F       0.00000000       0.00000000       0.00000000       0.00284891      -0.00588541      -0.23259928
Pd      11.09417351      11.11114858       7.40237641  T       0.00000000       0.00000000       0.00000000      -0.01527229       0.01392594      -0.00376047
Pd       3.08640032      10.44318826       5.43771065  T       0.00000000       0.00000000       0.00000000       0.01397590       0.01289723      -0.01570391
Pd       3.69104211       2.46069474       3.44535000  F       0.00000000       0.00000000       0.00000000      -0.06669948       0.04436108       0.09639859
Pd       1.85442396       1.83305046       5.40626716  F       0.00000000       0.00000000       0.00000000       0.06709812       0.05159857       0.06906550
Pd      11.68830001       3.07586842       1.50000000  F       0.00000000       0.00000000       0.00000000      -0.00068827      -0.00986246      -0.23284408
Pd       0.73910031       0.50712798       9.91416530  T       0.00000000       0.00000000       0.00000000      -0.02521524      -0.01782324      -0.01081375
Pd       2.30337236       3.48004457       9.77411920  T       0.00000000       0.00000000       0.00000000      -0.00355864       0.01408354       0.00283487
Pd       3.85273695       6.65116681      10.00984905  T       0.00000000       0.00000000       0.00000000      -0.01601645       0.03123258      -0.01077802
Pd       6.15173685       1.23034737       3.44535000  F       0.00000000       0.00000000       0.00000000      -0.00424034       0.00404649       0.05626593
Pd       4.28818081       0.63072761       5.40241929  F       0.00000000       0.00000000       0.00000000      -0.02318379      -0.01834342       0.17703297
Pd       6.10785056       1.29781394       7.39269272  T       0.00000000       0.00000000       0.00000000       0.00467992       0.00133629      -0.00264670
Pd       5.53656316       3.07586842       1.50000000  F       0.00000000       0.00000000       0.00000000       0.00040285      -0.00940168      -0.23216946
Pd       1.85444455       7.98478761       5.40627529  F       0.00000000       0.00000000       0.00000000       0.05371113      -0.01835636       0.16826507
Pd       5.36450609       3.37834848       9.68810454  T       0.00000000       0.00000000       0.00000000       0.01242032       0.01861884       0.00297283
Pd       3.07586842      10.45795264       1.50000000  F       0.00000000       0.00000000       0.00000000      -0.00530458      -0.00250633      -0.22696031
Pd       3.07586842       4.30621579       1.50000000  F       0.00000000       0.00000000       0.00000000      -0.00532799      -0.00305728      -0.22836353
Pd       3.08541077       4.30318917       5.43591618  T       0.00000000       0.00000000       0.00000000      -0.00461821       0.00099638       0.00156824
Pd      11.08401620       4.96061066       7.39464553  T       0.00000000       0.00000000       0.00000000      -0.00601089      -0.00052957      -0.01353823
Pd      11.07312632      11.07312632       3.44535000  F       0.00000000       0.00000000       0.00000000      -0.08129356       0.02850665       0.05909973
Pd       9.98254581       0.52332468       9.92264502  T       0.00000000       0.00000000       0.00000000      -0.00088984       0.00056255       0.00697810
Pd       6.89488708       0.48843685       9.91904443  T       0.00000000       0.00000000       0.00000000      -0.00245815       0.02114185       0.00368026
Pd       8.45167648       9.59214475       9.76544501  T       0.00000000       0.00000000       0.00000000       0.00152629       0.00033495       0.01346875
Pd       0.68938448       6.61255147       9.99671013  T       0.00000000       0.00000000       0.00000000      -0.00993082      -0.01006335      -0.00279150
Pd       5.38491018       9.51942044       9.68930186  T       0.00000000       0.00000000       0.00000000      -0.00039883       0.01896944       0.01121953
Pd      11.53098739       3.36760782       9.67344795  T       0.00000000       0.00000000       0.00000000      -0.00438853       0.02337697       0.00831847
Pd       8.45075577       3.43885466       9.75726558  T       0.00000000       0.00000000       0.00000000       0.00253785       0.00327440       0.00534298
Pd       9.94897231       6.66418167       9.91402047  T       0.00000000       0.00000000       0.00000000       0.02042058      -0.01308671       0.00093158
Pd       3.83773819       0.55347342       9.91223214  T       0.00000000       0.00000000       0.00000000       0.00998892      -0.02401528      -0.00877170
Pd       2.33230704       9.70858656       9.87084518  T       0.00000000       0.00000000       0.00000000      -0.01304871      -0.00818788      -0.01695052
Pd       4.92849496      11.10468283       7.40479175  T       0.00000000       0.00000000       0.00000000       0.00016156       0.00156780      -0.00045497
Pd      11.49672802       9.50727958       9.67071976  T       0.00000000       0.00000000       0.00000000      -0.00218673       0.02303615       0.00455531
C        5.42097217       7.51908776      13.77267256  T       0.00000000       0.00000000       0.00000000      -0.01871041      -0.02768044      -0.00294700
O        5.22855312       6.39209446      13.67211078  T       0.00000000       0.00000000       0.00000000       0.02579132       0.00818979      -0.02594687
O        2.40053463       7.77490045      12.29806920  T       0.00000000       0.00000000       0.00000000      -0.01120703      -0.00185515      -0.04657671
C        1.45614692       8.69835999      12.86233108  T       0.00000000       0.00000000       0.00000000      -0.00155012       0.00665813       0.01348508
H        1.59983055       8.56699116      13.94615735  T       0.00000000       0.00000000       0.00000000       0.01995100      -0.00013178       0.02461912
H        1.68450902       9.74734006      12.58826845  T       0.00000000       0.00000000       0.00000000       0.03097696      -0.00442058      -0.00783143
H        0.41854003       8.44501957      12.58804560  T       0.00000000       0.00000000       0.00000000      -0.00056440       0.00023245       0.00360444
