119
Lattice="12.303473692417112 0.0 0.0 0.0 12.303473692417114 0.0 0.0 0.0 29.165420746594243" Properties=species:S:1:pos:R:3:move_mask:L:1:momenta:R:3:forces:R:3 idx=9765 E_MACE=-601.4564952888145 d_min=2.0076149858463945 d_reactive=1.346725702419834 rank=8 dE_rel_meV=208.99377599812397 converged=T energy=-601.4564952888145 stress="0.005714729738754838 0.0003674161131152496 -0.00013667373026938 0.0003674161131152496 0.004863976890505745 0.00010273179985976851 -0.00013667373026938 0.00010273179985976851 -0.0034387038977843967" pbc="T T T"
O        8.47105318      11.62873585       9.36191297  T       0.00000000       0.00000000       0.00000000       0.00859051       0.00976541      -0.00817923
O       11.48354409       5.43495816       9.38086159  T       0.00000000       0.00000000       0.00000000       0.01065364      -0.01929538       0.00690992
O       11.55587904       1.68598525      10.56707768  T       0.00000000       0.00000000       0.00000000      -0.00829012       0.00653100       0.01324874
O       11.50121543      11.59546975       9.34843197  T       0.00000000       0.00000000       0.00000000       0.00782170       0.00724518       0.01771341
O        8.41509040       7.85862731      10.54656765  T       0.00000000       0.00000000       0.00000000       0.00023180       0.00124405      -0.00437337
O        5.34687737      11.57118311       9.38303679  T       0.00000000       0.00000000       0.00000000       0.00560542       0.01563728       0.00758137
O        5.37756304       7.81917715      10.57678439  T       0.00000000       0.00000000       0.00000000       0.00823547       0.00185706       0.00644738
O        8.46269390       5.48417227       9.35220795  T       0.00000000       0.00000000       0.00000000       0.01059277      -0.01543453      -0.00692029
O       11.53310376       7.77456316      10.67607914  T       0.00000000       0.00000000       0.00000000       0.00522659      -0.00165433      -0.00180912
O        2.29305485       5.48167839       9.34959832  T       0.00000000       0.00000000       0.00000000      -0.00311425      -0.00931391      -0.00517942
O        2.29684331       1.71626333      10.54510680  T       0.00000000       0.00000000       0.00000000       0.00535288      -0.00690273      -0.00170018
O        2.32761552      11.62941124       9.34429030  T       0.00000000       0.00000000       0.00000000       0.01149935      -0.00318602       0.01490495
O        5.33481447       5.42128452       9.37860459  T       0.00000000       0.00000000       0.00000000       0.00147189      -0.01031501       0.00068647
O        5.39747753       1.67505195      10.58157676  T       0.00000000       0.00000000       0.00000000       0.00713087       0.00260868      -0.00644200
O        2.28536429       7.85773085      10.53818081  T       0.00000000       0.00000000       0.00000000       0.00123516       0.01042768       0.00589045
O        8.43177431       1.71541995      10.53521923  T       0.00000000       0.00000000       0.00000000       0.00747686       0.01001321      -0.00022605
Pd       5.53656316       9.22760527       1.50000000  F       0.00000000       0.00000000       0.00000000      -0.00039256      -0.00968203      -0.23310276
Pd       6.10669926       7.46589437       7.39028073  T       0.00000000       0.00000000       0.00000000       0.00818208      -0.00800424      -0.01158243
Pd       4.28815433       6.78245218       5.40241719  F       0.00000000       0.00000000       0.00000000      -0.04946543       0.00785246       0.18354247
Pd       6.15173685       7.38208422       3.44535000  F       0.00000000       0.00000000       0.00000000      -0.00283902       0.00518410       0.05318671
Pd       7.32484704       3.65933517       7.35588551  T       0.00000000       0.00000000       0.00000000       0.00918775      -0.00115247      -0.00236684
Pd       5.51948843       3.08419342       5.37702261  F       0.00000000       0.00000000       0.00000000      -0.03919459       0.02040161       0.26444990
Pd       6.76691053       5.53656316       1.50000000  F       0.00000000       0.00000000       0.00000000       0.00241224       0.00458662      -0.23370360
Pd       7.38208422       9.84277895       3.44535000  F       0.00000000       0.00000000       0.00000000       0.07430592       0.01309774       0.12825349
Pd       7.99725790       7.99725790       1.50000000  F       0.00000000       0.00000000       0.00000000      -0.00183063       0.01236748      -0.23434544
Pd       5.51951598       9.23590192       5.37700272  F       0.00000000       0.00000000       0.00000000      -0.01520147       0.02509851       0.27147025
Pd       8.00616182       7.98477587       5.40628129  F       0.00000000       0.00000000       0.00000000       0.04495233       0.01125861       0.07270911
Pd       6.76691053      11.68830001       1.50000000  F       0.00000000       0.00000000       0.00000000       0.00117532       0.00497091      -0.23258095
Pd       8.61243158       0.00000000       3.44535000  F       0.00000000       0.00000000       0.00000000       0.03948042      -0.05325243       0.12172221
Pd       6.75606179      11.70364973       5.37992114  F       0.00000000       0.00000000       0.00000000       0.06197438      -0.06912959       0.16132730
Pd       8.56376419      -0.01320974       7.40867580  T       0.00000000       0.00000000       0.00000000       0.00242958       0.00506570       0.00125227
Pd       9.84277895       8.61243158       3.44535000  F       0.00000000       0.00000000       0.00000000      -0.07176920       0.03221925       0.07684809
Pd       7.38208422       3.69104211       3.44535000  F       0.00000000       0.00000000       0.00000000       0.07577248       0.01275745       0.12735870
Pd       3.69104211       8.61243158       3.44535000  F       0.00000000       0.00000000       0.00000000      -0.06741480       0.03415028       0.08573195
Pd       9.83084608       8.62206566       7.52972762  T       0.00000000       0.00000000       0.00000000      -0.00366216       0.00983816      -0.00272928
Pd       9.22760527      10.45795264       1.50000000  F       0.00000000       0.00000000       0.00000000      -0.00508219      -0.00192237      -0.22680774
Pd       7.33781823       9.80308725       7.35876917  T       0.00000000       0.00000000       0.00000000       0.00039608       0.00168551       0.00370494
Pd       1.84552105       7.99725790       1.50000000  F       0.00000000       0.00000000       0.00000000      -0.00280009       0.01276524      -0.23322450
Pd      11.68830001       9.22760527       1.50000000  F       0.00000000       0.00000000       0.00000000       0.00055248      -0.00956297      -0.22934346
Pd       0.60431863      11.70356305       5.37989931  F       0.00000000       0.00000000       0.00000000       0.04761092      -0.07582517       0.13214591
Pd       8.61243158       6.15173685       3.44535000  F       0.00000000       0.00000000       0.00000000       0.03622908      -0.05049290       0.11366387
Pd       6.75605293       5.55187564       5.37990856  F       0.00000000       0.00000000       0.00000000       0.03274445      -0.04673631       0.14221554
Pd       8.55379881       6.15612983       7.40410542  T       0.00000000       0.00000000       0.00000000       0.00655268       0.00343859       0.00248455
Pd       7.99725790       1.84552105       1.50000000  F       0.00000000       0.00000000       0.00000000      -0.00247602       0.01256726      -0.23382008
Pd       9.84277895       2.46069474       3.44535000  F       0.00000000       0.00000000       0.00000000      -0.07007492       0.04087116       0.09548456
Pd       8.00617313       1.83308050       5.40627808  F       0.00000000       0.00000000       0.00000000       0.07530469       0.01872348       0.10476468
Pd       9.81813779       2.47746278       7.51112591  T       0.00000000       0.00000000       0.00000000       0.00299035      -0.00115610      -0.00173387
Pd       9.22760527       4.30621579       1.50000000  F       0.00000000       0.00000000       0.00000000      -0.00528464      -0.00284075      -0.22726280
Pd       4.92138948       4.92138948       3.44535000  F       0.00000000       0.00000000       0.00000000      -0.09032360       0.02300285       0.06516117
Pd       9.23802450       4.30056029       5.43574866  T       0.00000000       0.00000000       0.00000000       0.00529025      -0.00212513       0.00089689
Pd       4.92735458       4.97563637       7.40311527  T       0.00000000       0.00000000       0.00000000       0.00529197      -0.00989528      -0.00190729
Pd      10.45795264       6.76691053       1.50000000  F       0.00000000       0.00000000       0.00000000       0.00314587      -0.00542026      -0.23212322
Pd       0.00000000       7.38208422       3.44535000  F       0.00000000       0.00000000       0.00000000      -0.00299562       0.00455351       0.04559225
Pd      10.43991375       6.78245558       5.40242713  F       0.00000000       0.00000000       0.00000000      -0.03858421       0.02516257       0.20344406
Pd      12.26519428       7.46466088       7.38577083  T       0.00000000       0.00000000       0.00000000      -0.00049506       0.00529985       0.00727580
Pd       4.92138948      11.07312632       3.44535000  F       0.00000000       0.00000000       0.00000000      -0.07857632       0.02481701       0.05478318
Pd       1.23034737       9.84277895       3.44535000  F       0.00000000       0.00000000       0.00000000       0.07749366       0.01689245       0.11754066
Pd      11.67120661       9.23591801       5.37701028  F       0.00000000       0.00000000       0.00000000      -0.04127622      -0.00675504       0.28473305
Pd       1.17490272       9.81306900       7.35412153  T       0.00000000       0.00000000       0.00000000       0.00397482      -0.00658228       0.00595998
Pd       0.61517368      11.68830001       1.50000000  F       0.00000000       0.00000000       0.00000000       0.00190858       0.00469359      -0.23233733
Pd       2.46069474       0.00000000       3.44535000  F       0.00000000       0.00000000       0.00000000       0.03415453      -0.04709983       0.11160779
Pd       2.40694639      -0.00277356       7.40328542  T       0.00000000       0.00000000       0.00000000       0.00075094       0.00512478      -0.00398338
Pd       9.23840661      10.44444025       5.43568295  T       0.00000000       0.00000000       0.00000000       0.01123499       0.00988107       0.00902199
Pd       3.66445510       8.62321960       7.50813411  T       0.00000000       0.00000000       0.00000000       0.00220749       0.00108636      -0.00107570
Pd       4.30621579       0.61517368       1.50000000  F       0.00000000       0.00000000       0.00000000       0.00303177      -0.00610118      -0.23358816
Pd      11.07312632       4.92138948       3.44535000  F       0.00000000       0.00000000       0.00000000      -0.08482571       0.02151668       0.06472363
Pd       4.30621579       6.76691053       1.50000000  F       0.00000000       0.00000000       0.00000000       0.00348502      -0.00566799      -0.23191243
Pd       3.67405051       2.47379299       7.51380814  T       0.00000000       0.00000000       0.00000000      -0.00376817      -0.00720484      -0.00422731
Pd       2.39565836       6.14715634       7.40165149  T       0.00000000       0.00000000       0.00000000       0.00230463       0.00763056       0.00101173
Pd       0.60433818       5.55187436       5.37993065  F       0.00000000       0.00000000       0.00000000       0.02976439      -0.08838388       0.12228903
Pd       2.46069474       6.15173685       3.44535000  F       0.00000000       0.00000000       0.00000000       0.03719900      -0.05430013       0.11737583
Pd       0.61517368       5.53656316       1.50000000  F       0.00000000       0.00000000       0.00000000       0.00193379       0.00536260      -0.23420818
Pd       1.17294031       3.64363754       7.35860606  T       0.00000000       0.00000000       0.00000000       0.00252834       0.01291167      -0.00224923
Pd      11.67123156       3.08419612       5.37703229  F       0.00000000       0.00000000       0.00000000      -0.04338777       0.03194774       0.26559077
Pd       6.89324094       6.68387570       9.91344008  T       0.00000000       0.00000000       0.00000000       0.00907088       0.01257176       0.00838028
Pd       1.23034737       3.69104211       3.44535000  F       0.00000000       0.00000000       0.00000000       0.07336450       0.01355078       0.12870071
Pd      12.24851739       1.29378854       7.37929078  T       0.00000000       0.00000000       0.00000000       0.00416744       0.00189454      -0.01674329
Pd      10.43990395       0.63072067       5.40242717  F       0.00000000       0.00000000       0.00000000      -0.07812180      -0.00634947       0.16888693
Pd       0.00000000       1.23034737       3.44535000  F       0.00000000       0.00000000       0.00000000      -0.00349280       0.00447869       0.04901129
Pd       1.84552105       1.84552105       1.50000000  F       0.00000000       0.00000000       0.00000000      -0.00265209       0.01171033      -0.23266427
Pd      10.45795264       0.61517368       1.50000000  F       0.00000000       0.00000000       0.00000000       0.00354469      -0.00658454      -0.23223566
Pd      11.08357671      11.08744984       7.40683512  T       0.00000000       0.00000000       0.00000000      -0.00549493      -0.00964587      -0.01553646
Pd       3.09023621      10.45141649       5.43132825  T       0.00000000       0.00000000       0.00000000       0.00232347       0.00992271       0.00751117
Pd       3.69104211       2.46069474       3.44535000  F       0.00000000       0.00000000       0.00000000      -0.06871334       0.04239184       0.09410005
Pd       1.85442396       1.83305046       5.40626716  F       0.00000000       0.00000000       0.00000000       0.07437064       0.01580161       0.09603333
Pd      11.68830001       3.07586842       1.50000000  F       0.00000000       0.00000000       0.00000000      -0.00073619      -0.00994452      -0.23253146
Pd       0.76598553       0.55304834       9.89609591  T       0.00000000       0.00000000       0.00000000      -0.00531842      -0.00060083       0.00930711
Pd       2.32168950       3.50310119       9.76330033  T       0.00000000       0.00000000       0.00000000       0.00404826      -0.00281240       0.00621143
Pd       3.83261478       6.71760023       9.91274259  T       0.00000000       0.00000000       0.00000000       0.00456091      -0.01652657      -0.00135484
Pd       6.15173685       1.23034737       3.44535000  F       0.00000000       0.00000000       0.00000000      -0.00142183       0.00501405       0.05243278
Pd       4.28818081       0.63072761       5.40241929  F       0.00000000       0.00000000       0.00000000      -0.02995251       0.01049152       0.19546568
Pd       6.11576679       1.30755605       7.38960528  T       0.00000000       0.00000000       0.00000000      -0.00149305      -0.00150004      -0.00468048
Pd       5.53656316       3.07586842       1.50000000  F       0.00000000       0.00000000       0.00000000      -0.00039952      -0.00957139      -0.23265341
Pd       1.85444455       7.98478761       5.40627529  F       0.00000000       0.00000000       0.00000000       0.05233887       0.03798300       0.09932703
Pd       5.38334807       3.40993752       9.68911489  T       0.00000000       0.00000000       0.00000000       0.00964678      -0.00052509       0.00527603
Pd       3.07586842      10.45795264       1.50000000  F       0.00000000       0.00000000       0.00000000      -0.00622040      -0.00257037      -0.22886527
Pd       3.07586842       4.30621579       1.50000000  F       0.00000000       0.00000000       0.00000000      -0.00471372      -0.00251437      -0.22796219
Pd       3.08499814       4.29831765       5.43689744  T       0.00000000       0.00000000       0.00000000       0.00785141       0.00106960      -0.00730711
Pd      11.08348121       4.97786570       7.40416503  T       0.00000000       0.00000000       0.00000000       0.00113006      -0.00017997       0.00154345
Pd      11.07312632      11.07312632       3.44535000  F       0.00000000       0.00000000       0.00000000      -0.09219855       0.02812428       0.06327271
Pd      10.00211825       0.58830694       9.90788923  T       0.00000000       0.00000000       0.00000000      -0.00719802       0.00098395       0.00136874
Pd       6.90788734       0.53404422       9.91625930  T       0.00000000       0.00000000       0.00000000       0.00504372       0.00711609       0.00225811
Pd       8.46966967       9.64966953       9.77097432  T       0.00000000       0.00000000       0.00000000      -0.00090473      -0.01082122       0.00575794
Pd       0.73939928       6.69714585       9.92049470  T       0.00000000       0.00000000       0.00000000       0.01284605       0.00536799       0.00621584
Pd       5.37882624       9.55799615       9.69137538  T       0.00000000       0.00000000       0.00000000       0.00385616       0.00021945       0.00789258
Pd      11.54272626       3.42120314       9.68337731  T       0.00000000       0.00000000       0.00000000      -0.00701018      -0.00766832      -0.00562268
Pd       8.47316048       3.50376702       9.75935590  T       0.00000000       0.00000000       0.00000000      -0.00238896      -0.00418288       0.00901029
Pd       9.98445176       6.73185769       9.92998862  T       0.00000000       0.00000000       0.00000000       0.00041654       0.00348610       0.00671025
Pd       3.85303584       0.57226338       9.92126216  T       0.00000000       0.00000000       0.00000000      -0.01326427      -0.00984757       0.00139343
Pd       2.35083544       9.64384286       9.74554511  T       0.00000000       0.00000000       0.00000000      -0.00300682      -0.00315873       0.01552611
Pd       4.93725701      11.11972381       7.40585962  T       0.00000000       0.00000000       0.00000000      -0.00329914       0.00778913      -0.00506348
Pd      11.54727708       9.62574357       9.93877395  T       0.00000000       0.00000000       0.00000000       0.00016615      -0.01464539      -0.00474974
C       11.64802976      10.25206491      11.84352811  T       0.00000000       0.00000000       0.00000000      -0.03393735      -0.01756682      -0.01826775
O       10.65506408      10.45936404      12.50954214  T       0.00000000       0.00000000       0.00000000       0.02931393       0.00358154       0.01422359
O        0.63252660      -1.87425144      12.19483611  T       0.00000000       0.00000000       0.00000000       0.00433618       0.00867907       0.02907321
C        0.88525506      -1.27779928      13.51907937  T       0.00000000       0.00000000       0.00000000      -0.01787534      -0.02293156       0.00030332
H        0.58965122      -1.99114070      14.30354170  T       0.00000000       0.00000000       0.00000000       0.00838874       0.02732292      -0.00757536
H        1.96820271      -1.09841938      13.52717040  T       0.00000000       0.00000000       0.00000000      -0.03612607      -0.00362209       0.00599070
H        0.32251561      -0.33722388      13.61281708  T       0.00000000       0.00000000       0.00000000       0.00920118      -0.01449883       0.00496804
