119
Lattice="12.303473692417112 0.0 0.0 0.0 12.303473692417114 0.0 0.0 0.0 29.165420746594243" Properties=species:S:1:pos:R:3:move_mask:L:1:momenta:R:3:forces:R:3 idx=4447 E_MACE=-601.6016539476615 d_min=1.1795430988078321 d_reactive=4.646475420931005 rank=2 dE_rel_meV=63.835117151143095 converged=T energy=-601.6016539476615 stress="0.006032474935419288 0.0003820158515937285 -8.752187880770876e-05 0.0003820158515937285 0.0054281122898575266 -7.814860164186352e-07 -8.752187880770876e-05 -7.814860164186352e-07 -0.0034021690375476265" pbc="T T T"
O        8.48784684      11.57836873       9.35116456  T       0.00000000       0.00000000       0.00000000      -0.01142222      -0.00370680      -0.00516079
O       11.52533803       5.38880035       9.38722539  T       0.00000000       0.00000000       0.00000000      -0.01129576      -0.00570071       0.01183898
O       11.58102131       1.62836839      10.53503215  T       0.00000000       0.00000000       0.00000000      -0.02367072       0.00125006       0.00367616
O       11.51203842      11.52316186       9.37941488  T       0.00000000       0.00000000       0.00000000      -0.01749092      -0.01359981      -0.00713842
O        8.43937072       7.83742569      10.52900178  T       0.00000000       0.00000000       0.00000000      -0.00732328      -0.02066156      -0.00254871
O        5.37728001      11.40644415       9.47590302  T       0.00000000       0.00000000       0.00000000       0.00416697       0.00763360       0.00743221
O        5.25350054       8.12932582      13.15944098  T       0.00000000       0.00000000       0.00000000       0.02492429      -0.02140356      -0.00122814
O        8.46043972       5.42634173       9.39754219  T       0.00000000       0.00000000       0.00000000       0.01078774      -0.00956643      -0.01364333
O       11.55721836       7.76288339      10.56459026  T       0.00000000       0.00000000       0.00000000      -0.03067338       0.03110807      -0.02176411
O        2.36400673       5.42537020       9.39819729  T       0.00000000       0.00000000       0.00000000      -0.00223486       0.01060636      -0.00540411
O        2.33923381       1.66026126      10.47206655  T       0.00000000       0.00000000       0.00000000      -0.02856811      -0.00155605       0.01059507
O        2.36552018      11.59564593       9.27460914  T       0.00000000       0.00000000       0.00000000       0.00110472       0.01070279      -0.01296733
O        5.37171416       5.49571758       9.36429703  T       0.00000000       0.00000000       0.00000000      -0.01884886       0.01870062      -0.00164318
O        5.41899931       1.65480411      10.53091778  T       0.00000000       0.00000000       0.00000000      -0.00613738      -0.02162436      -0.00054753
O        2.35100283       7.82648492      10.53572442  T       0.00000000       0.00000000       0.00000000      -0.01460102       0.00978046      -0.01381939
O        8.43952131       1.66485591      10.49723652  T       0.00000000       0.00000000       0.00000000      -0.00487808      -0.01742682      -0.00952165
Pd       5.53656316       9.22760527       1.50000000  F       0.00000000       0.00000000       0.00000000      -0.00127629      -0.01077155      -0.23539161
Pd       6.08764763       7.45361669       7.34339274  T       0.00000000       0.00000000       0.00000000       0.01427165       0.02146929      -0.00003866
Pd       4.28815433       6.78245218       5.40241719  F       0.00000000       0.00000000       0.00000000      -0.15627377      -0.06944670       0.16205909
Pd       6.15173685       7.38208422       3.44535000  F       0.00000000       0.00000000       0.00000000       0.00547588       0.00093531       0.03347727
Pd       7.32693092       3.66264748       7.34863968  T       0.00000000       0.00000000       0.00000000       0.00679141      -0.01295363       0.00179366
Pd       5.51948843       3.08419342       5.37702261  F       0.00000000       0.00000000       0.00000000      -0.02287143      -0.00526396       0.26526489
Pd       6.76691053       5.53656316       1.50000000  F       0.00000000       0.00000000       0.00000000       0.00156830       0.00411801      -0.23194465
Pd       7.38208422       9.84277895       3.44535000  F       0.00000000       0.00000000       0.00000000       0.08240527       0.01813921       0.11737996
Pd       7.99725790       7.99725790       1.50000000  F       0.00000000       0.00000000       0.00000000      -0.00323036       0.01321011      -0.23160956
Pd       5.51951598       9.23590192       5.37700272  F       0.00000000       0.00000000       0.00000000      -0.05077816       0.13062073       0.26939057
Pd       8.00616182       7.98477587       5.40628129  F       0.00000000       0.00000000       0.00000000       0.13661691      -0.05761644       0.09058876
Pd       6.76691053      11.68830001       1.50000000  F       0.00000000       0.00000000       0.00000000       0.00060424       0.00402016      -0.23424789
Pd       8.61243158       0.00000000       3.44535000  F       0.00000000       0.00000000       0.00000000       0.03772699      -0.04626233       0.10998688
Pd       6.75606179      11.70364973       5.37992114  F       0.00000000       0.00000000       0.00000000      -0.01450932      -0.05160408       0.16790183
Pd       8.55362238      -0.00229659       7.40560424  T       0.00000000       0.00000000       0.00000000       0.00891423      -0.00816457       0.01248953
Pd       9.84277895       8.61243158       3.44535000  F       0.00000000       0.00000000       0.00000000      -0.06623293       0.03682394       0.08871548
Pd       7.38208422       3.69104211       3.44535000  F       0.00000000       0.00000000       0.00000000       0.07597266       0.00870858       0.13491190
Pd       3.69104211       8.61243158       3.44535000  F       0.00000000       0.00000000       0.00000000      -0.07116611       0.04392775       0.07990545
Pd       9.84078176       8.59702800       7.50177771  T       0.00000000       0.00000000       0.00000000      -0.00239290       0.00854100       0.00314838
Pd       9.22760527      10.45795264       1.50000000  F       0.00000000       0.00000000       0.00000000      -0.00523359      -0.00334429      -0.22742524
Pd       7.36444102       9.80400706       7.33390343  T       0.00000000       0.00000000       0.00000000      -0.01147670       0.00824642      -0.00151854
Pd       1.84552105       7.99725790       1.50000000  F       0.00000000       0.00000000       0.00000000      -0.00233740       0.01143081      -0.23221477
Pd      11.68830001       9.22760527       1.50000000  F       0.00000000       0.00000000       0.00000000      -0.00028483      -0.01080740      -0.23282135
Pd       0.60431863      11.70356305       5.37989931  F       0.00000000       0.00000000       0.00000000       0.00881988      -0.06540471       0.09298662
Pd       8.61243158       6.15173685       3.44535000  F       0.00000000       0.00000000       0.00000000       0.03180836      -0.04222051       0.12235539
Pd       6.75605293       5.55187564       5.37990856  F       0.00000000       0.00000000       0.00000000       0.07213370      -0.05693617       0.15219634
Pd       8.55041563       6.13292771       7.43968406  T       0.00000000       0.00000000       0.00000000       0.00705810      -0.00714265      -0.00149490
Pd       7.99725790       1.84552105       1.50000000  F       0.00000000       0.00000000       0.00000000      -0.00186583       0.01184831      -0.23347969
Pd       9.84277895       2.46069474       3.44535000  F       0.00000000       0.00000000       0.00000000      -0.06963819       0.04560739       0.09835778
Pd       8.00617313       1.83308050       5.40627808  F       0.00000000       0.00000000       0.00000000       0.04669674       0.02130272       0.09109539
Pd       9.81737128       2.46925219       7.49596151  T       0.00000000       0.00000000       0.00000000       0.01062594       0.00101473       0.01684465
Pd       9.22760527       4.30621579       1.50000000  F       0.00000000       0.00000000       0.00000000      -0.00443320      -0.00397920      -0.22995519
Pd       4.92138948       4.92138948       3.44535000  F       0.00000000       0.00000000       0.00000000      -0.08866609       0.02399198       0.05211592
Pd       9.24019196       4.30589223       5.43606893  T       0.00000000       0.00000000       0.00000000      -0.00554710       0.00503105       0.01028765
Pd       4.93493587       4.96366169       7.40857116  T       0.00000000       0.00000000       0.00000000      -0.01848405       0.00326567      -0.00689306
Pd      10.45795264       6.76691053       1.50000000  F       0.00000000       0.00000000       0.00000000       0.00370722      -0.00522908      -0.23440370
Pd       0.00000000       7.38208422       3.44535000  F       0.00000000       0.00000000       0.00000000       0.00033239       0.00850968       0.05093721
Pd      10.43991375       6.78245558       5.40242713  F       0.00000000       0.00000000       0.00000000      -0.05674194      -0.02549382       0.20923319
Pd      12.27775901       7.45130732       7.38441721  T       0.00000000       0.00000000       0.00000000      -0.00026952       0.01751690       0.00215310
Pd       4.92138948      11.07312632       3.44535000  F       0.00000000       0.00000000       0.00000000      -0.07850629       0.02008416       0.06221285
Pd       1.23034737       9.84277895       3.44535000  F       0.00000000       0.00000000       0.00000000       0.08131876       0.01723345       0.13196066
Pd      11.67120661       9.23591801       5.37701028  F       0.00000000       0.00000000       0.00000000      -0.02521643      -0.00928161       0.24417921
Pd       1.16635600       9.81863102       7.35975752  T       0.00000000       0.00000000       0.00000000      -0.00307105      -0.01179686      -0.00809482
Pd       0.61517368      11.68830001       1.50000000  F       0.00000000       0.00000000       0.00000000       0.00349632       0.00450761      -0.22998247
Pd       2.46069474       0.00000000       3.44535000  F       0.00000000       0.00000000       0.00000000       0.03665294      -0.06214549       0.11738880
Pd       2.41791978      -0.00207019       7.36454957  T       0.00000000       0.00000000       0.00000000       0.00647834       0.00005601       0.02848029
Pd       9.24464603      10.45144529       5.43270883  T       0.00000000       0.00000000       0.00000000      -0.00349407      -0.00080560      -0.00733633
Pd       3.60980903       8.63530074       7.49747176  T       0.00000000       0.00000000       0.00000000      -0.00899221       0.00280353       0.00203379
Pd       4.30621579       0.61517368       1.50000000  F       0.00000000       0.00000000       0.00000000       0.00243340      -0.00687336      -0.23398320
Pd      11.07312632       4.92138948       3.44535000  F       0.00000000       0.00000000       0.00000000      -0.08695383       0.02779887       0.06051453
Pd       4.30621579       6.76691053       1.50000000  F       0.00000000       0.00000000       0.00000000       0.00288374      -0.00422315      -0.23231124
Pd       3.68578795       2.46942078       7.49374405  T       0.00000000       0.00000000       0.00000000      -0.00997283       0.00057571      -0.00244406
Pd       2.39939555       6.11791473       7.44160539  T       0.00000000       0.00000000       0.00000000      -0.00821863       0.01030045      -0.00754503
Pd       0.60433818       5.55187436       5.37993065  F       0.00000000       0.00000000       0.00000000       0.08434937      -0.05454352       0.17058930
Pd       2.46069474       6.15173685       3.44535000  F       0.00000000       0.00000000       0.00000000       0.04294524      -0.04101176       0.12033865
Pd       0.61517368       5.53656316       1.50000000  F       0.00000000       0.00000000       0.00000000       0.00062817       0.00574918      -0.23424615
Pd       1.18057926       3.64851444       7.35606850  T       0.00000000       0.00000000       0.00000000       0.01368084       0.01414605       0.00418647
Pd      11.67123156       3.08419612       5.37703229  F       0.00000000       0.00000000       0.00000000      -0.02372789       0.00480366       0.27581415
Pd       6.84427631       6.80392230       9.83896875  T       0.00000000       0.00000000       0.00000000       0.04729610       0.00593004       0.00471948
Pd       1.23034737       3.69104211       3.44535000  F       0.00000000       0.00000000       0.00000000       0.07383089       0.01322934       0.13398057
Pd      12.26630494       1.30319092       7.39545457  T       0.00000000       0.00000000       0.00000000       0.00151003      -0.00469415      -0.00475555
Pd      10.43990395       0.63072067       5.40242717  F       0.00000000       0.00000000       0.00000000      -0.02141826      -0.00064467       0.18519612
Pd       0.00000000       1.23034737       3.44535000  F       0.00000000       0.00000000       0.00000000      -0.00126602       0.00367927       0.05501938
Pd       1.84552105       1.84552105       1.50000000  F       0.00000000       0.00000000       0.00000000      -0.00248749       0.01341631      -0.23309689
Pd      10.45795264       0.61517368       1.50000000  F       0.00000000       0.00000000       0.00000000       0.00286136      -0.00747524      -0.23376711
Pd      11.07777839      11.11900424       7.40764760  T       0.00000000       0.00000000       0.00000000      -0.00914091      -0.00259619      -0.01278648
Pd       3.09850230      10.44843587       5.44023682  T       0.00000000       0.00000000       0.00000000       0.00524761      -0.00525617      -0.00275275
Pd       3.69104211       2.46069474       3.44535000  F       0.00000000       0.00000000       0.00000000      -0.07126276       0.05029781       0.09550557
Pd       1.85442396       1.83305046       5.40626716  F       0.00000000       0.00000000       0.00000000       0.05440955       0.06103960       0.04719533
Pd      11.68830001       3.07586842       1.50000000  F       0.00000000       0.00000000       0.00000000      -0.00053738      -0.00880645      -0.23368607
Pd       0.79434677       0.47501983       9.89357660  T       0.00000000       0.00000000       0.00000000       0.01008180       0.02289920       0.02497596
Pd       2.37558744       3.46101933       9.73964878  T       0.00000000       0.00000000       0.00000000       0.01830509       0.01645704      -0.00123010
Pd       3.95974663       6.88305518       9.80460137  T       0.00000000       0.00000000       0.00000000      -0.00333844      -0.00905720      -0.01596116
Pd       6.15173685       1.23034737       3.44535000  F       0.00000000       0.00000000       0.00000000      -0.00408105       0.00419558       0.06519155
Pd       4.28818081       0.63072761       5.40241929  F       0.00000000       0.00000000       0.00000000       0.08205469      -0.05904127       0.21628345
Pd       6.11851934       1.30759570       7.40626849  T       0.00000000       0.00000000       0.00000000      -0.00156049      -0.00320512      -0.01797102
Pd       5.53656316       3.07586842       1.50000000  F       0.00000000       0.00000000       0.00000000      -0.00000517      -0.00948279      -0.23381071
Pd       1.85444455       7.98478761       5.40627529  F       0.00000000       0.00000000       0.00000000       0.06931715      -0.02380353       0.13588165
Pd       5.40943414       3.41958441       9.66553877  T       0.00000000       0.00000000       0.00000000       0.01494633       0.00123933       0.00090129
Pd       3.07586842      10.45795264       1.50000000  F       0.00000000       0.00000000       0.00000000      -0.00493174      -0.00218063      -0.22662032
Pd       3.07586842       4.30621579       1.50000000  F       0.00000000       0.00000000       0.00000000      -0.00546399      -0.00326367      -0.22888152
Pd       3.08485485       4.30555653       5.43496016  T       0.00000000       0.00000000       0.00000000       0.00666830      -0.01078116      -0.00893410
Pd      11.08978684       4.97040455       7.40745742  T       0.00000000       0.00000000       0.00000000      -0.02715109       0.00852004       0.00575495
Pd      11.07312632      11.07312632       3.44535000  F       0.00000000       0.00000000       0.00000000      -0.07844822       0.02949840       0.05707593
Pd      10.01583543       0.53127508       9.89389954  T       0.00000000       0.00000000       0.00000000       0.02675953       0.02371654       0.03071219
Pd       6.90862802       0.45668965       9.91100341  T       0.00000000       0.00000000       0.00000000       0.01227357       0.01543196       0.01642197
Pd       8.53446256       9.61013819       9.75154965  T       0.00000000       0.00000000       0.00000000      -0.01432591       0.00980905      -0.00347084
Pd       0.79912495       6.64986312       9.91349281  T       0.00000000       0.00000000       0.00000000       0.02188056       0.00931656      -0.00962511
Pd       5.52241101       9.19689476       9.43691933  T       0.00000000       0.00000000       0.00000000      -0.00524051      -0.00072167       0.00533865
Pd      11.57270507       3.36616818       9.65068218  T       0.00000000       0.00000000       0.00000000       0.00286661      -0.00820593       0.02501580
Pd       8.46559033       3.45694203       9.74326767  T       0.00000000       0.00000000       0.00000000       0.01054867       0.00946222       0.01496593
Pd      10.00177731       6.66632129       9.92484931  T       0.00000000       0.00000000       0.00000000       0.00392941       0.02925334       0.00809685
Pd       3.90316678       0.50064936       9.87950567  T       0.00000000       0.00000000       0.00000000      -0.00083849       0.00834614       0.00676973
Pd       2.33456811       9.63659799       9.81483213  T       0.00000000       0.00000000       0.00000000      -0.00036917      -0.00704242       0.00718114
Pd       4.96401984      11.14590697       7.46350029  T       0.00000000       0.00000000       0.00000000      -0.00642113      -0.00474759      -0.00745317
Pd      11.52665774       9.50610388       9.68798948  T       0.00000000       0.00000000       0.00000000      -0.00771426       0.00808665      -0.00600821
C        5.76333282       9.16798711      12.93014707  T       0.00000000       0.00000000       0.00000000       0.01677424       0.00650287      -0.01450998
O        6.26991639      10.21110267      12.71370416  T       0.00000000       0.00000000       0.00000000      -0.00267145       0.00266691       0.00125921
O        1.50828630      10.38722501      11.51672149  T       0.00000000       0.00000000       0.00000000       0.00728309      -0.01533719       0.00889426
C        2.41538758      10.56065073      12.58512349  T       0.00000000       0.00000000       0.00000000       0.00016609       0.01268626       0.01967705
H        1.84237109      11.02448687      13.41410985  T       0.00000000       0.00000000       0.00000000      -0.00513526       0.00124201      -0.00402001
H        2.83510584       9.59911459      12.94538455  T       0.00000000       0.00000000       0.00000000       0.00232129      -0.01397325      -0.00490966
H        3.25570555      11.24760544      12.33045167  T       0.00000000       0.00000000       0.00000000      -0.00589597      -0.02415803       0.03018751
