119
Lattice="12.303473692417112 0.0 0.0 0.0 12.303473692417114 0.0 0.0 0.0 29.165420746594243" Properties=species:S:1:pos:R:3:move_mask:L:1:momenta:R:3:forces:R:3 idx=10530 E_MACE=-600.3061185946315 d_min=2.1046089982604057 d_reactive=4.69971337242605 rank=5798 dE_rel_meV=1359.3704701811475 converged=T energy=-600.3061185946315 stress="0.0054191254157415535 0.00046850357081751527 7.177053380933517e-05 0.00046850357081751527 0.00460682228940941 9.662938639815058e-05 7.177053380933517e-05 9.662938639815058e-05 -0.003207433240448282" pbc="T T T"
O        8.49374946      11.63752373       9.34130767  T       0.00000000       0.00000000       0.00000000      -0.00965304      -0.00398518       0.03102985
O       11.53375846       5.42734458       9.35974094  T       0.00000000       0.00000000       0.00000000      -0.00163712       0.00044118      -0.00377789
O       11.59809329       1.68577626      10.56547509  T       0.00000000       0.00000000       0.00000000      -0.01317988       0.00349519      -0.00955521
O       11.57865258      11.59924392       9.34058730  T       0.00000000       0.00000000       0.00000000      -0.01408729      -0.00261087      -0.01116683
O        8.43068052       7.82377393      10.55139365  T       0.00000000       0.00000000       0.00000000      -0.00203014      -0.03235543       0.00385733
O        5.40229213      11.57070391       9.38788202  T       0.00000000       0.00000000       0.00000000      -0.00915887      -0.00788283      -0.01205949
O        5.44218276       7.80979371      10.57682415  T       0.00000000       0.00000000       0.00000000      -0.00292204       0.00439684      -0.00841656
O        8.52712416       5.47604270       9.35530906  T       0.00000000       0.00000000       0.00000000      -0.01805956      -0.00366063      -0.01640346
O       11.65603812       7.80312304      10.55431472  T       0.00000000       0.00000000       0.00000000      -0.01255557      -0.03475431       0.00680626
O        2.37947534       5.44786837       9.33792534  T       0.00000000       0.00000000       0.00000000      -0.00730284       0.03206008      -0.00899305
O        2.35510127       1.70595645      10.56612319  T       0.00000000       0.00000000       0.00000000      -0.01419785      -0.01981736       0.01081353
O        2.36419933      11.61978489       9.37307380  T       0.00000000       0.00000000       0.00000000      -0.01029702       0.00774183       0.00015917
O        5.38583112       5.41043155       9.36694442  T       0.00000000       0.00000000       0.00000000      -0.00278973      -0.02835169      -0.01851215
O        5.43950576       1.67024072      10.59275512  T       0.00000000       0.00000000       0.00000000      -0.01689200       0.02460270       0.00482307
O        2.33405821       7.84156436      10.53915085  T       0.00000000       0.00000000       0.00000000      -0.00430240       0.00169731       0.01011319
O        8.49468861       1.71438894      10.53033794  T       0.00000000       0.00000000       0.00000000      -0.00758236       0.00259805      -0.00399514
Pd       5.53656316       9.22760527       1.50000000  F       0.00000000       0.00000000       0.00000000      -0.00041083      -0.01011569      -0.23226111
Pd       6.11081817       7.45975133       7.38297583  T       0.00000000       0.00000000       0.00000000      -0.01116048       0.00530094      -0.00452513
Pd       4.28815433       6.78245218       5.40241719  F       0.00000000       0.00000000       0.00000000      -0.02533833       0.02078336       0.16604533
Pd       6.15173685       7.38208422       3.44535000  F       0.00000000       0.00000000       0.00000000      -0.00565018       0.00832554       0.05633773
Pd       7.34130297       3.65772730       7.35808585  T       0.00000000       0.00000000       0.00000000       0.00253482      -0.00741415      -0.00143193
Pd       5.51948843       3.08419342       5.37702261  F       0.00000000       0.00000000       0.00000000      -0.00274542       0.00640148       0.25431864
Pd       6.76691053       5.53656316       1.50000000  F       0.00000000       0.00000000       0.00000000       0.00152108       0.00535303      -0.23256676
Pd       7.38208422       9.84277895       3.44535000  F       0.00000000       0.00000000       0.00000000       0.06693550       0.01356968       0.12437272
Pd       7.99725790       7.99725790       1.50000000  F       0.00000000       0.00000000       0.00000000      -0.00127762       0.01171846      -0.23372065
Pd       5.51951598       9.23590192       5.37700272  F       0.00000000       0.00000000       0.00000000      -0.01256719       0.03877416       0.29420506
Pd       8.00616182       7.98477587       5.40628129  F       0.00000000       0.00000000       0.00000000       0.06333896       0.04682099       0.12657755
Pd       6.76691053      11.68830001       1.50000000  F       0.00000000       0.00000000       0.00000000       0.00302962       0.00564050      -0.23308383
Pd       8.61243158       0.00000000       3.44535000  F       0.00000000       0.00000000       0.00000000       0.03529527      -0.05813613       0.11927982
Pd       6.75606179      11.70364973       5.37992114  F       0.00000000       0.00000000       0.00000000       0.05158004      -0.10281716       0.16274159
Pd       8.55569041      -0.01877439       7.39412386  T       0.00000000       0.00000000       0.00000000       0.00513896       0.00858963       0.00215763
Pd       9.84277895       8.61243158       3.44535000  F       0.00000000       0.00000000       0.00000000      -0.07065247       0.03333828       0.08387744
Pd       7.38208422       3.69104211       3.44535000  F       0.00000000       0.00000000       0.00000000       0.07161966       0.01224134       0.12866910
Pd       3.69104211       8.61243158       3.44535000  F       0.00000000       0.00000000       0.00000000      -0.07889226       0.05079200       0.10176471
Pd       9.83246130       8.63103574       7.51732448  T       0.00000000       0.00000000       0.00000000      -0.00306867       0.00261640       0.00850622
Pd       9.22760527      10.45795264       1.50000000  F       0.00000000       0.00000000       0.00000000      -0.00374094      -0.00145691      -0.22524995
Pd       7.34556963       9.79570246       7.39173842  T       0.00000000       0.00000000       0.00000000      -0.00728711      -0.00188982      -0.00658915
Pd       1.84552105       7.99725790       1.50000000  F       0.00000000       0.00000000       0.00000000      -0.00167074       0.01194558      -0.23191535
Pd      11.68830001       9.22760527       1.50000000  F       0.00000000       0.00000000       0.00000000      -0.00115619      -0.00980509      -0.23178256
Pd       0.60431863      11.70356305       5.37989931  F       0.00000000       0.00000000       0.00000000       0.08870142      -0.08561239       0.18937001
Pd       8.61243158       6.15173685       3.44535000  F       0.00000000       0.00000000       0.00000000       0.03495202      -0.05117168       0.10600316
Pd       6.75605293       5.55187564       5.37990856  F       0.00000000       0.00000000       0.00000000       0.06497494      -0.05529214       0.13645923
Pd       8.56143181       6.15378100       7.40259688  T       0.00000000       0.00000000       0.00000000       0.01000721       0.00447928       0.01428057
Pd       7.99725790       1.84552105       1.50000000  F       0.00000000       0.00000000       0.00000000      -0.00190115       0.01219930      -0.23333716
Pd       9.84277895       2.46069474       3.44535000  F       0.00000000       0.00000000       0.00000000      -0.06952535       0.03186048       0.09155279
Pd       8.00617313       1.83308050       5.40627808  F       0.00000000       0.00000000       0.00000000       0.06613967       0.02257188       0.07396009
Pd       9.83031117       2.46802307       7.49601944  T       0.00000000       0.00000000       0.00000000      -0.00568396       0.00450131       0.00107176
Pd       9.22760527       4.30621579       1.50000000  F       0.00000000       0.00000000       0.00000000      -0.00525590      -0.00192217      -0.22733126
Pd       4.92138948       4.92138948       3.44535000  F       0.00000000       0.00000000       0.00000000      -0.08128421       0.02566302       0.05636757
Pd       9.23873609       4.30099999       5.43178568  T       0.00000000       0.00000000       0.00000000       0.00456383       0.00044050       0.00548361
Pd       4.93971901       4.95917810       7.39906388  T       0.00000000       0.00000000       0.00000000       0.00017724      -0.00220385       0.00230903
Pd      10.45795264       6.76691053       1.50000000  F       0.00000000       0.00000000       0.00000000       0.00330314      -0.00468162      -0.23165925
Pd       0.00000000       7.38208422       3.44535000  F       0.00000000       0.00000000       0.00000000      -0.00231997       0.00640998       0.04716150
Pd      10.43991375       6.78245558       5.40242713  F       0.00000000       0.00000000       0.00000000      -0.03533778       0.01833814       0.17086417
Pd      12.26417126       7.45510458       7.38005633  T       0.00000000       0.00000000       0.00000000      -0.00657643       0.00959309       0.00036168
Pd       4.92138948      11.07312632       3.44535000  F       0.00000000       0.00000000       0.00000000      -0.09025975       0.02087339       0.07574489
Pd       1.23034737       9.84277895       3.44535000  F       0.00000000       0.00000000       0.00000000       0.08515286       0.01817041       0.13253100
Pd      11.67120661       9.23591801       5.37701028  F       0.00000000       0.00000000       0.00000000       0.00261436       0.01519042       0.27812324
Pd       1.16355084       9.80426574       7.38758487  T       0.00000000       0.00000000       0.00000000       0.00213263       0.00333858       0.00243785
Pd       0.61517368      11.68830001       1.50000000  F       0.00000000       0.00000000       0.00000000       0.00137484       0.00543032      -0.23259815
Pd       2.46069474       0.00000000       3.44535000  F       0.00000000       0.00000000       0.00000000       0.03579509      -0.06581587       0.13143906
Pd       2.41906495      -0.01362964       7.41542488  T       0.00000000       0.00000000       0.00000000      -0.00469639      -0.00503475      -0.00024608
Pd       9.23811338      10.44347824       5.43528764  T       0.00000000       0.00000000       0.00000000      -0.00820454      -0.00224882       0.01380601
Pd       3.67487664       8.63656546       7.51596715  T       0.00000000       0.00000000       0.00000000      -0.00770815      -0.00219378       0.00458918
Pd       4.30621579       0.61517368       1.50000000  F       0.00000000       0.00000000       0.00000000       0.00273669      -0.00618426      -0.23195973
Pd      11.07312632       4.92138948       3.44535000  F       0.00000000       0.00000000       0.00000000      -0.08125559       0.02553319       0.06147852
Pd       4.30621579       6.76691053       1.50000000  F       0.00000000       0.00000000       0.00000000       0.00427074      -0.00656869      -0.23266494
Pd       3.68181908       2.46182339       7.50382620  T       0.00000000       0.00000000       0.00000000      -0.00649412      -0.00309867       0.00788225
Pd       2.41867168       6.15425398       7.39656850  T       0.00000000       0.00000000       0.00000000      -0.00357710      -0.01024865       0.01980908
Pd       0.60433818       5.55187436       5.37993065  F       0.00000000       0.00000000       0.00000000       0.06893562      -0.08178619       0.12842967
Pd       2.46069474       6.15173685       3.44535000  F       0.00000000       0.00000000       0.00000000       0.03584904      -0.05318419       0.11044971
Pd       0.61517368       5.53656316       1.50000000  F       0.00000000       0.00000000       0.00000000       0.00142006       0.00539809      -0.23286569
Pd       1.19240817       3.65615834       7.36228401  T       0.00000000       0.00000000       0.00000000      -0.00498392      -0.00189743      -0.00663830
Pd      11.67123156       3.08419612       5.37703229  F       0.00000000       0.00000000       0.00000000       0.00339338       0.02729039       0.25901983
Pd       6.94428316       6.66469357       9.90089092  T       0.00000000       0.00000000       0.00000000       0.01363096       0.01004534      -0.02475549
Pd       1.23034737       3.69104211       3.44535000  F       0.00000000       0.00000000       0.00000000       0.07000650       0.01384678       0.13014175
Pd      12.27729610       1.30949868       7.38610876  T       0.00000000       0.00000000       0.00000000      -0.00334289       0.00127812      -0.00049474
Pd      10.43990395       0.63072067       5.40242717  F       0.00000000       0.00000000       0.00000000      -0.02772577      -0.00792021       0.16432815
Pd       0.00000000       1.23034737       3.44535000  F       0.00000000       0.00000000       0.00000000      -0.00360332       0.00903775       0.04998302
Pd       1.84552105       1.84552105       1.50000000  F       0.00000000       0.00000000       0.00000000      -0.00260414       0.01281866      -0.23433930
Pd      10.45795264       0.61517368       1.50000000  F       0.00000000       0.00000000       0.00000000       0.00333232      -0.00678196      -0.23012048
Pd      11.08373036      11.11974330       7.39971902  T       0.00000000       0.00000000       0.00000000       0.02783961       0.00663409       0.00761499
Pd       3.08573665      10.45112305       5.44338614  T       0.00000000       0.00000000       0.00000000      -0.00613990      -0.00505789       0.00702168
Pd       3.69104211       2.46069474       3.44535000  F       0.00000000       0.00000000       0.00000000      -0.07293322       0.03473004       0.08975107
Pd       1.85442396       1.83305046       5.40626716  F       0.00000000       0.00000000       0.00000000       0.08648328       0.00578799       0.09696839
Pd      11.68830001       3.07586842       1.50000000  F       0.00000000       0.00000000       0.00000000      -0.00014635      -0.01030550      -0.23210333
Pd       0.82008512       0.54990562       9.92151999  T       0.00000000       0.00000000       0.00000000      -0.00951335      -0.02525738      -0.03376392
Pd       2.39637185       3.48020021       9.76259614  T       0.00000000       0.00000000       0.00000000      -0.01197729       0.01449222      -0.00836860
Pd       3.89501913       6.71161970       9.90599640  T       0.00000000       0.00000000       0.00000000       0.00170175       0.01358962       0.00912812
Pd       6.15173685       1.23034737       3.44535000  F       0.00000000       0.00000000       0.00000000      -0.00367303       0.01124163       0.04997187
Pd       4.28818081       0.63072761       5.40241929  F       0.00000000       0.00000000       0.00000000      -0.02292718      -0.02077494       0.19507356
Pd       6.12018975       1.31033372       7.39117703  T       0.00000000       0.00000000       0.00000000      -0.00173718       0.00424932      -0.00082998
Pd       5.53656316       3.07586842       1.50000000  F       0.00000000       0.00000000       0.00000000      -0.00012612      -0.00977779      -0.23216447
Pd       1.85444455       7.98478761       5.40627529  F       0.00000000       0.00000000       0.00000000       0.05980951       0.07500867       0.13542836
Pd       5.43588104       3.39845463       9.68727896  T       0.00000000       0.00000000       0.00000000      -0.02937398       0.00601835      -0.00665019
Pd       3.07586842      10.45795264       1.50000000  F       0.00000000       0.00000000       0.00000000      -0.00497248      -0.00216626      -0.22732471
Pd       3.07586842       4.30621579       1.50000000  F       0.00000000       0.00000000       0.00000000      -0.00471335      -0.00246833      -0.22743391
Pd       3.08819519       4.29874845       5.43284461  T       0.00000000       0.00000000       0.00000000      -0.00276008      -0.00401228       0.00770864
Pd      11.08629838       4.96871592       7.39765534  T       0.00000000       0.00000000       0.00000000       0.00398588      -0.00611297      -0.00246423
Pd      11.07312632      11.07312632       3.44535000  F       0.00000000       0.00000000       0.00000000      -0.08613746       0.02712951       0.05969201
Pd      10.05447253       0.59583036       9.86640417  T       0.00000000       0.00000000       0.00000000      -0.00889251      -0.00886309       0.01188934
Pd       6.95333774       0.54194581       9.92122495  T       0.00000000       0.00000000       0.00000000       0.00381490       0.00131087      -0.01044187
Pd       8.43866735       9.65793405       9.83420417  T       0.00000000       0.00000000       0.00000000      -0.00776955       0.02248355      -0.02006150
Pd       0.81809124       6.66206303       9.88599532  T       0.00000000       0.00000000       0.00000000      -0.01109671      -0.00490576      -0.00331079
Pd       5.46782791       9.55650794       9.70142605  T       0.00000000       0.00000000       0.00000000      -0.00473635      -0.00032481      -0.01090589
Pd      11.58742706       3.41580356       9.66994716  T       0.00000000       0.00000000       0.00000000      -0.00806713      -0.00794328       0.01537410
Pd       8.53268907       3.50157729       9.75469611  T       0.00000000       0.00000000       0.00000000      -0.00067482      -0.00450833       0.00954278
Pd      10.04870670       6.74291013       9.91556025  T       0.00000000       0.00000000       0.00000000       0.00905373       0.03138952       0.02396161
Pd       3.90042341       0.55704334       9.93911510  T       0.00000000       0.00000000       0.00000000       0.00447440      -0.00608427      -0.01182474
Pd       2.34762578       9.63985522       9.78147980  T       0.00000000       0.00000000       0.00000000       0.00182506      -0.00457574      -0.00403768
Pd       4.95082248      11.12182473       7.41290311  T       0.00000000       0.00000000       0.00000000      -0.00867417      -0.00025462      -0.00390206
Pd      11.68723692       9.60862611       9.78773139  T       0.00000000       0.00000000       0.00000000      -0.00226010       0.00525910      -0.00647190
C       12.37209127       6.29032911      13.17840057  T       0.00000000       0.00000000       0.00000000      -0.02762175       0.00741483       0.01078285
O       11.91461176       7.10459952      13.84635100  T       0.00000000       0.00000000       0.00000000       0.02546093      -0.02086561      -0.03483722
O       10.07389386       9.85001872      11.14512629  T       0.00000000       0.00000000       0.00000000       0.00244609      -0.01297567       0.00916278
C       10.07461276      10.73217636      12.25422056  T       0.00000000       0.00000000       0.00000000       0.00396236      -0.00760879       0.01938728
H        9.30072903      10.39832698      12.97255496  T       0.00000000       0.00000000       0.00000000       0.01328717       0.02543359      -0.00704982
H       11.06412834      10.69958784      12.74762165  T       0.00000000       0.00000000       0.00000000      -0.00412468      -0.01059497       0.02112213
H        9.86117841      11.78896266      11.96512480  T       0.00000000       0.00000000       0.00000000       0.01705218      -0.00138697      -0.01251232
