119
Lattice="12.303473692417112 0.0 0.0 0.0 12.303473692417114 0.0 0.0 0.0 29.165420746594243" Properties=species:S:1:pos:R:3:move_mask:L:1:momenta:R:3:forces:R:3 idx=9637 E_MACE=-600.3060304152505 d_min=2.1039971059596847 d_reactive=3.6707876909276798 rank=5800 dE_rel_meV=1359.458649562157 converged=T energy=-600.3060304152505 stress="0.005626767558612562 0.0003826098385311021 4.849363132688531e-06 0.0003826098385311021 0.004873309198352665 0.00019511903073230567 4.849363132688531e-06 0.00019511903073230567 -0.003017465826120825" pbc="T T T"
O        8.51924415      11.65597054       9.35779935  T       0.00000000       0.00000000       0.00000000      -0.01715636      -0.02082292      -0.00901887
O       11.52227497       5.40892198       9.37130455  T       0.00000000       0.00000000       0.00000000      -0.01187883       0.01998468       0.00697655
O       11.58796499       1.67948367      10.60969190  T       0.00000000       0.00000000       0.00000000      -0.01098896      -0.00354248      -0.00152799
O       11.50903658      11.58024777       9.39542618  T       0.00000000       0.00000000       0.00000000      -0.01406065       0.01626224       0.00868319
O        8.50361751       7.83129857      10.53475450  T       0.00000000       0.00000000       0.00000000       0.00070434      -0.02671025       0.02345369
O        5.33919637      11.58899382       9.34952504  T       0.00000000       0.00000000       0.00000000       0.01243545      -0.01223095       0.02836237
O        5.34707214       7.79102284      10.60604926  T       0.00000000       0.00000000       0.00000000      -0.00727051       0.00783685       0.00652345
O        8.46480525       5.47692122       9.34849658  T       0.00000000       0.00000000       0.00000000       0.00735250       0.03063199      -0.00563041
O       11.55069360       7.81689583      10.59254130  T       0.00000000       0.00000000       0.00000000      -0.01990005      -0.01223834      -0.01380343
O        2.31097976       5.46198436       9.34495940  T       0.00000000       0.00000000       0.00000000      -0.00362842      -0.00702633       0.01959987
O        2.29970239       1.70409422      10.56090539  T       0.00000000       0.00000000       0.00000000      -0.00789498       0.01574538       0.00517965
O        2.33385414      11.61778567       9.36556093  T       0.00000000       0.00000000       0.00000000      -0.01282280       0.00330265       0.01284014
O        5.36411024       5.42777196       9.37332887  T       0.00000000       0.00000000       0.00000000      -0.01833425       0.02515781       0.00557934
O        5.41029542       1.68166063      10.56818419  T       0.00000000       0.00000000       0.00000000       0.01303023      -0.00528421      -0.00560648
O        2.29366784       7.84468114      10.55491003  T       0.00000000       0.00000000       0.00000000      -0.00130519       0.00956710      -0.00278455
O        8.45478784       1.72760165      10.55014669  T       0.00000000       0.00000000       0.00000000      -0.01035108      -0.04045750      -0.00569967
Pd       5.53656316       9.22760527       1.50000000  F       0.00000000       0.00000000       0.00000000       0.00025789      -0.00983566      -0.23047149
Pd       6.12074978       7.46267258       7.37921682  T       0.00000000       0.00000000       0.00000000      -0.01156630      -0.00299231      -0.01995925
Pd       4.28815433       6.78245218       5.40241719  F       0.00000000       0.00000000       0.00000000      -0.04541840       0.04628644       0.22177838
Pd       6.15173685       7.38208422       3.44535000  F       0.00000000       0.00000000       0.00000000      -0.00872581       0.00316466       0.04716407
Pd       7.33199259       3.65185514       7.35397911  T       0.00000000       0.00000000       0.00000000       0.01198125       0.00543715       0.00377241
Pd       5.51948843       3.08419342       5.37702261  F       0.00000000       0.00000000       0.00000000      -0.03580065       0.03436458       0.24614677
Pd       6.76691053       5.53656316       1.50000000  F       0.00000000       0.00000000       0.00000000       0.00209601       0.00598017      -0.23236961
Pd       7.38208422       9.84277895       3.44535000  F       0.00000000       0.00000000       0.00000000       0.08201018       0.01958955       0.13716548
Pd       7.99725790       7.99725790       1.50000000  F       0.00000000       0.00000000       0.00000000      -0.00280116       0.01255839      -0.23251376
Pd       5.51951598       9.23590192       5.37700272  F       0.00000000       0.00000000       0.00000000       0.00037278       0.01837794       0.29451817
Pd       8.00616182       7.98477587       5.40628129  F       0.00000000       0.00000000       0.00000000       0.08888456       0.08890195       0.15333842
Pd       6.76691053      11.68830001       1.50000000  F       0.00000000       0.00000000       0.00000000       0.00327585       0.00445082      -0.23136965
Pd       8.61243158       0.00000000       3.44535000  F       0.00000000       0.00000000       0.00000000       0.03753737      -0.05970965       0.12546967
Pd       6.75606179      11.70364973       5.37992114  F       0.00000000       0.00000000       0.00000000       0.08538711      -0.09999269       0.15056381
Pd       8.56569455      -0.00824073       7.40732210  T       0.00000000       0.00000000       0.00000000       0.00482932      -0.00501490      -0.00567817
Pd       9.84277895       8.61243158       3.44535000  F       0.00000000       0.00000000       0.00000000      -0.06959858       0.03817777       0.08633630
Pd       7.38208422       3.69104211       3.44535000  F       0.00000000       0.00000000       0.00000000       0.07858829       0.01745311       0.13498318
Pd       3.69104211       8.61243158       3.44535000  F       0.00000000       0.00000000       0.00000000      -0.07507714       0.03804135       0.08397919
Pd       9.81782176       8.64103830       7.54501259  T       0.00000000       0.00000000       0.00000000      -0.01014449       0.00545452      -0.00240094
Pd       9.22760527      10.45795264       1.50000000  F       0.00000000       0.00000000       0.00000000      -0.00636023      -0.00220359      -0.22771180
Pd       7.34040245       9.81251814       7.38130347  T       0.00000000       0.00000000       0.00000000      -0.01005891       0.00952543      -0.00735739
Pd       1.84552105       7.99725790       1.50000000  F       0.00000000       0.00000000       0.00000000      -0.00219606       0.01279790      -0.23345319
Pd      11.68830001       9.22760527       1.50000000  F       0.00000000       0.00000000       0.00000000      -0.00112614      -0.00994317      -0.23273787
Pd       0.60431863      11.70356305       5.37989931  F       0.00000000       0.00000000       0.00000000       0.05787125      -0.08005946       0.18092097
Pd       8.61243158       6.15173685       3.44535000  F       0.00000000       0.00000000       0.00000000       0.03817616      -0.05368505       0.11631799
Pd       6.75605293       5.55187564       5.37990856  F       0.00000000       0.00000000       0.00000000       0.04886411      -0.07421587       0.12085475
Pd       8.55859103       6.15031140       7.39942195  T       0.00000000       0.00000000       0.00000000       0.00007646       0.01051815       0.02295600
Pd       7.99725790       1.84552105       1.50000000  F       0.00000000       0.00000000       0.00000000      -0.00247463       0.01250813      -0.23310991
Pd       9.84277895       2.46069474       3.44535000  F       0.00000000       0.00000000       0.00000000      -0.07146652       0.03853426       0.09422439
Pd       8.00617313       1.83308050       5.40627808  F       0.00000000       0.00000000       0.00000000       0.09632125       0.01414647       0.09559448
Pd       9.83199976       2.46847380       7.51449171  T       0.00000000       0.00000000       0.00000000      -0.01502481       0.00616353       0.00175047
Pd       9.22760527       4.30621579       1.50000000  F       0.00000000       0.00000000       0.00000000      -0.00526988      -0.00236020      -0.22705107
Pd       4.92138948       4.92138948       3.44535000  F       0.00000000       0.00000000       0.00000000      -0.08505310       0.01861193       0.06233756
Pd       9.24244326       4.29974213       5.43602860  T       0.00000000       0.00000000       0.00000000      -0.01281543      -0.01063163       0.00021397
Pd       4.93135068       4.97258095       7.40214102  T       0.00000000       0.00000000       0.00000000       0.00659916       0.00270797       0.00588404
Pd      10.45795264       6.76691053       1.50000000  F       0.00000000       0.00000000       0.00000000       0.00366168      -0.00586557      -0.23115092
Pd       0.00000000       7.38208422       3.44535000  F       0.00000000       0.00000000       0.00000000      -0.01015322       0.00393810       0.04791778
Pd      10.43991375       6.78245558       5.40242713  F       0.00000000       0.00000000       0.00000000      -0.04218311       0.03167416       0.20568245
Pd      12.25522242       7.46702799       7.39074689  T       0.00000000       0.00000000       0.00000000      -0.00396584      -0.00542678      -0.01332435
Pd       4.92138948      11.07312632       3.44535000  F       0.00000000       0.00000000       0.00000000      -0.09670144       0.02222409       0.06827063
Pd       1.23034737       9.84277895       3.44535000  F       0.00000000       0.00000000       0.00000000       0.08385452       0.01567603       0.13425275
Pd      11.67120661       9.23591801       5.37701028  F       0.00000000       0.00000000       0.00000000      -0.00966210       0.03472846       0.30937583
Pd       1.19319725       9.79811464       7.36940283  T       0.00000000       0.00000000       0.00000000      -0.00813212       0.01059551      -0.01673934
Pd       0.61517368      11.68830001       1.50000000  F       0.00000000       0.00000000       0.00000000       0.00212461       0.00517297      -0.23351851
Pd       2.46069474       0.00000000       3.44535000  F       0.00000000       0.00000000       0.00000000       0.04104239      -0.05914077       0.12846016
Pd       2.40414119      -0.01243622       7.41169407  T       0.00000000       0.00000000       0.00000000       0.00038079       0.01234270      -0.01408588
Pd       9.24170774      10.44534658       5.44044641  T       0.00000000       0.00000000       0.00000000      -0.00846405       0.01341934       0.00975351
Pd       3.70252979       8.63797378       7.55200856  T       0.00000000       0.00000000       0.00000000       0.00030406      -0.00531255      -0.00133658
Pd       4.30621579       0.61517368       1.50000000  F       0.00000000       0.00000000       0.00000000       0.00340530      -0.00712607      -0.23115628
Pd      11.07312632       4.92138948       3.44535000  F       0.00000000       0.00000000       0.00000000      -0.08236560       0.02120065       0.05302577
Pd       4.30621579       6.76691053       1.50000000  F       0.00000000       0.00000000       0.00000000       0.00433404      -0.00601462      -0.23176419
Pd       3.66854746       2.46865683       7.51292605  T       0.00000000       0.00000000       0.00000000       0.00428409       0.00409985       0.00694399
Pd       2.40598900       6.16127223       7.40498053  T       0.00000000       0.00000000       0.00000000      -0.00333853       0.01107013      -0.01835153
Pd       0.60433818       5.55187436       5.37993065  F       0.00000000       0.00000000       0.00000000       0.05289751      -0.05056368       0.15238130
Pd       2.46069474       6.15173685       3.44535000  F       0.00000000       0.00000000       0.00000000       0.03685058      -0.05428127       0.12294258
Pd       0.61517368       5.53656316       1.50000000  F       0.00000000       0.00000000       0.00000000       0.00201810       0.00493640      -0.23234247
Pd       1.18396582       3.65284641       7.35753225  T       0.00000000       0.00000000       0.00000000      -0.00322730       0.01249389      -0.01524105
Pd      11.67123156       3.08419612       5.37703229  F       0.00000000       0.00000000       0.00000000      -0.01305662       0.00248360       0.27087684
Pd       6.91213076       6.70917671       9.91669168  T       0.00000000       0.00000000       0.00000000      -0.00833996      -0.02431002       0.01013748
Pd       1.23034737       3.69104211       3.44535000  F       0.00000000       0.00000000       0.00000000       0.08007512       0.01555394       0.13254150
Pd      12.26785172       1.30764778       7.39771888  T       0.00000000       0.00000000       0.00000000       0.01160271      -0.00428454      -0.00962423
Pd      10.43990395       0.63072067       5.40242717  F       0.00000000       0.00000000       0.00000000      -0.01972823      -0.01319624       0.21001064
Pd       0.00000000       1.23034737       3.44535000  F       0.00000000       0.00000000       0.00000000      -0.00437522       0.00551147       0.05478884
Pd       1.84552105       1.84552105       1.50000000  F       0.00000000       0.00000000       0.00000000      -0.00278607       0.01322742      -0.23412146
Pd      10.45795264       0.61517368       1.50000000  F       0.00000000       0.00000000       0.00000000       0.00265158      -0.00619326      -0.23180714
Pd      11.09964499      11.12246512       7.41616238  T       0.00000000       0.00000000       0.00000000       0.01319192      -0.00549291      -0.01581839
Pd       3.08840155      10.44473465       5.44110672  T       0.00000000       0.00000000       0.00000000       0.00474914       0.00914565      -0.00101744
Pd       3.69104211       2.46069474       3.44535000  F       0.00000000       0.00000000       0.00000000      -0.06999053       0.03907210       0.09451971
Pd       1.85442396       1.83305046       5.40626716  F       0.00000000       0.00000000       0.00000000       0.06728992       0.00435895       0.10436761
Pd      11.68830001       3.07586842       1.50000000  F       0.00000000       0.00000000       0.00000000      -0.00073313      -0.00967660      -0.23232530
Pd       0.77808394       0.52898452       9.93498652  T       0.00000000       0.00000000       0.00000000      -0.01150604      -0.03960194      -0.00807452
Pd       2.32679858       3.48614846       9.76958498  T       0.00000000       0.00000000       0.00000000      -0.00656764       0.02212978      -0.01261160
Pd       3.84381474       6.70015457       9.91816175  T       0.00000000       0.00000000       0.00000000      -0.01520831      -0.01954548      -0.04040591
Pd       6.15173685       1.23034737       3.44535000  F       0.00000000       0.00000000       0.00000000      -0.00165484       0.00461387       0.04742110
Pd       4.28818081       0.63072761       5.40241929  F       0.00000000       0.00000000       0.00000000      -0.07423707      -0.01080010       0.17398745
Pd       6.10595017       1.30598642       7.37730923  T       0.00000000       0.00000000       0.00000000       0.01501486      -0.00127808      -0.01501168
Pd       5.53656316       3.07586842       1.50000000  F       0.00000000       0.00000000       0.00000000      -0.00091868      -0.00995247      -0.23241160
Pd       1.85444455       7.98478761       5.40627529  F       0.00000000       0.00000000       0.00000000       0.08363451       0.03912969       0.13879493
Pd       5.40896067       3.41575845       9.68046250  T       0.00000000       0.00000000       0.00000000      -0.01188117      -0.00144328      -0.00125733
Pd       3.07586842      10.45795264       1.50000000  F       0.00000000       0.00000000       0.00000000      -0.00523922      -0.00170554      -0.22628258
Pd       3.07586842       4.30621579       1.50000000  F       0.00000000       0.00000000       0.00000000      -0.00542336      -0.00228737      -0.22752273
Pd       3.08888500       4.29848244       5.43800331  T       0.00000000       0.00000000       0.00000000      -0.00862041       0.01476273      -0.00670938
Pd      11.08875842       4.96751463       7.40279067  T       0.00000000       0.00000000       0.00000000      -0.00223306      -0.01554030      -0.00826117
Pd      11.07312632      11.07312632       3.44535000  F       0.00000000       0.00000000       0.00000000      -0.09066356       0.02021998       0.07252686
Pd      10.02993432       0.59226041       9.94475465  T       0.00000000       0.00000000       0.00000000      -0.01389278       0.00379210      -0.03476535
Pd       6.92934584       0.55715524       9.89007701  T       0.00000000       0.00000000       0.00000000       0.00622105       0.01635704       0.00162260
Pd       8.58332310       9.66543811       9.84333491  T       0.00000000       0.00000000       0.00000000       0.00388201       0.00475082      -0.02460461
Pd       0.76129044       6.68479340       9.91254557  T       0.00000000       0.00000000       0.00000000       0.00866769      -0.02192089      -0.00859927
Pd       5.30568299       9.59287426       9.81808203  T       0.00000000       0.00000000       0.00000000       0.00768916      -0.01083504       0.00391817
Pd      11.58241638       3.40454513       9.70148584  T       0.00000000       0.00000000       0.00000000      -0.01913337       0.00372099      -0.01738210
Pd       8.49198656       3.50511789       9.75888218  T       0.00000000       0.00000000       0.00000000      -0.01890649      -0.00387452       0.01535079
Pd      10.01915872       6.69973775       9.90726544  T       0.00000000       0.00000000       0.00000000       0.01399454      -0.00967241      -0.01122455
Pd       3.85838853       0.57747052       9.91885291  T       0.00000000       0.00000000       0.00000000      -0.01928050      -0.00592782      -0.00637872
Pd       2.35309512       9.63739018       9.78262731  T       0.00000000       0.00000000       0.00000000       0.02545748       0.01752677       0.00360428
Pd       4.93795983      11.11513596       7.40313201  T       0.00000000       0.00000000       0.00000000      -0.00922158      -0.02005868      -0.00364408
Pd      11.51588004       9.56725155       9.72103038  T       0.00000000       0.00000000       0.00000000       0.01276526      -0.02374105      -0.00836871
C        9.06915360       8.20485173      13.56817855  T       0.00000000       0.00000000       0.00000000       0.00759494       0.00763564       0.00474611
O        8.68590673       7.18693764      13.93302823  T       0.00000000       0.00000000       0.00000000       0.00643394      -0.01848318      -0.04459512
O        6.91468141       9.91234146      11.13560569  T       0.00000000       0.00000000       0.00000000       0.02802414      -0.02164372       0.01903704
C        6.86228032      10.75541749      12.27508523  T       0.00000000       0.00000000       0.00000000       0.00457479      -0.00720426      -0.01544968
H        6.08534218      10.38028658      12.96886548  T       0.00000000       0.00000000       0.00000000      -0.00318875       0.01622236      -0.00946912
H        7.84344843      10.73741160      12.78506807  T       0.00000000       0.00000000       0.00000000      -0.00796159      -0.01603716       0.00612669
H        6.62468018      11.81451658      12.01714231  T       0.00000000       0.00000000       0.00000000       0.00418782       0.00136724      -0.01984366
