119
Lattice="12.303473692417112 0.0 0.0 0.0 12.303473692417114 0.0 0.0 0.0 29.165420746594243" Properties=species:S:1:pos:R:3:move_mask:L:1:momenta:R:3:forces:R:3 idx=1806 E_MACE=-600.3061262988421 d_min=1.8976882828817412 d_reactive=4.8819936413953275 rank=5797 dE_rel_meV=1359.362765970559 converged=T energy=-600.3061262988421 stress="0.005336847623525976 0.0003455010972008953 2.6107049778850393e-05 0.0003455010972008953 0.004389655717539751 0.00014550502986981708 2.6107049778850393e-05 0.00014550502986981708 -0.0032954078662278258" pbc="T T T"
O        8.49476315      11.60216635       9.34830737  T       0.00000000       0.00000000       0.00000000       0.00482453       0.00597345       0.01001423
O       11.51136520       5.42164568       9.35863418  T       0.00000000       0.00000000       0.00000000      -0.00577574      -0.00219403       0.00140840
O       11.57703798       1.64327251      10.57078834  T       0.00000000       0.00000000       0.00000000       0.01297340       0.01800888       0.01654544
O       11.51354289      11.57628987       9.34375349  T       0.00000000       0.00000000       0.00000000      -0.01403847      -0.02229586       0.00537535
O        8.40580553       7.86328861      10.57477024  T       0.00000000       0.00000000       0.00000000       0.00096973       0.00542025      -0.01681906
O        5.37858129      11.56076557       9.34638317  T       0.00000000       0.00000000       0.00000000       0.01390532      -0.01637568       0.01110109
O        5.39564452       7.82361972      10.57841264  T       0.00000000       0.00000000       0.00000000       0.00491728      -0.02371363      -0.00428275
O        8.46641629       5.46100482       9.37860062  T       0.00000000       0.00000000       0.00000000       0.01236397       0.01497843      -0.01601610
O       11.57516458       7.85808623      10.55799367  T       0.00000000       0.00000000       0.00000000       0.00749417      -0.00925515       0.01686709
O        2.31483937       5.48843375       9.33155065  T       0.00000000       0.00000000       0.00000000      -0.00229953       0.00238283      -0.01003275
O        2.31499393       1.59146332      10.60544723  T       0.00000000       0.00000000       0.00000000       0.00391931       0.01415413       0.01890448
O        2.34243350      11.59295837       9.33677475  T       0.00000000       0.00000000       0.00000000       0.00464533      -0.01691186       0.00791799
O        5.35396109       5.41640413       9.37472095  T       0.00000000       0.00000000       0.00000000      -0.00914769      -0.01313681      -0.00262220
O        5.42466815       1.65208857      10.55756807  T       0.00000000       0.00000000       0.00000000      -0.01308696      -0.00690187       0.02410770
O        2.29698663       7.85145943      10.55151827  T       0.00000000       0.00000000       0.00000000      -0.01326470       0.00180674      -0.00466223
O        8.45104124       1.68712654      10.54042226  T       0.00000000       0.00000000       0.00000000      -0.00353444      -0.02671142       0.01337594
Pd       5.53656316       9.22760527       1.50000000  F       0.00000000       0.00000000       0.00000000      -0.00067137      -0.00916031      -0.23246610
Pd       6.12492315       7.45469145       7.38792702  T       0.00000000       0.00000000       0.00000000      -0.00515933       0.00263941      -0.00043160
Pd       4.28815433       6.78245218       5.40241719  F       0.00000000       0.00000000       0.00000000      -0.00946308      -0.01515621       0.15265357
Pd       6.15173685       7.38208422       3.44535000  F       0.00000000       0.00000000       0.00000000      -0.00701212       0.00103584       0.06027244
Pd       7.34152500       3.66949388       7.34108165  T       0.00000000       0.00000000       0.00000000      -0.01520426       0.00383958       0.00628682
Pd       5.51948843       3.08419342       5.37702261  F       0.00000000       0.00000000       0.00000000      -0.05984970       0.02078035       0.26911450
Pd       6.76691053       5.53656316       1.50000000  F       0.00000000       0.00000000       0.00000000       0.00258349       0.00497018      -0.23492507
Pd       7.38208422       9.84277895       3.44535000  F       0.00000000       0.00000000       0.00000000       0.07755860       0.01307953       0.12864820
Pd       7.99725790       7.99725790       1.50000000  F       0.00000000       0.00000000       0.00000000      -0.00275483       0.01187106      -0.23584351
Pd       5.51951598       9.23590192       5.37700272  F       0.00000000       0.00000000       0.00000000      -0.00165298      -0.00663155       0.24508028
Pd       8.00616182       7.98477587       5.40628129  F       0.00000000       0.00000000       0.00000000       0.11057117      -0.02039131       0.12804751
Pd       6.76691053      11.68830001       1.50000000  F       0.00000000       0.00000000       0.00000000       0.00182748       0.00468303      -0.23251407
Pd       8.61243158       0.00000000       3.44535000  F       0.00000000       0.00000000       0.00000000       0.03391678      -0.05066692       0.12166431
Pd       6.75606179      11.70364973       5.37992114  F       0.00000000       0.00000000       0.00000000       0.07004164      -0.04013586       0.13813254
Pd       8.55313996       0.00207304       7.40368259  T       0.00000000       0.00000000       0.00000000      -0.01120980      -0.00265336      -0.00776188
Pd       9.84277895       8.61243158       3.44535000  F       0.00000000       0.00000000       0.00000000      -0.07104143       0.03922166       0.08109696
Pd       7.38208422       3.69104211       3.44535000  F       0.00000000       0.00000000       0.00000000       0.07870425       0.01533154       0.12516596
Pd       3.69104211       8.61243158       3.44535000  F       0.00000000       0.00000000       0.00000000      -0.07047137       0.03243429       0.09137797
Pd       9.82448474       8.59142401       7.53383438  T       0.00000000       0.00000000       0.00000000       0.00341608      -0.00098680       0.00664824
Pd       9.22760527      10.45795264       1.50000000  F       0.00000000       0.00000000       0.00000000      -0.00477139      -0.00172104      -0.22797741
Pd       7.34380663       9.80398426       7.35758651  T       0.00000000       0.00000000       0.00000000      -0.00465885      -0.00973658      -0.01296022
Pd       1.84552105       7.99725790       1.50000000  F       0.00000000       0.00000000       0.00000000      -0.00285060       0.01285901      -0.23353949
Pd      11.68830001       9.22760527       1.50000000  F       0.00000000       0.00000000       0.00000000       0.00057059      -0.00952245      -0.23315220
Pd       0.60431863      11.70356305       5.37989931  F       0.00000000       0.00000000       0.00000000       0.05337167      -0.04457208       0.13281950
Pd       8.61243158       6.15173685       3.44535000  F       0.00000000       0.00000000       0.00000000       0.03096733      -0.04220979       0.11062256
Pd       6.75605293       5.55187564       5.37990856  F       0.00000000       0.00000000       0.00000000       0.08196767      -0.01760707       0.17725841
Pd       8.58136170       6.15035204       7.43868523  T       0.00000000       0.00000000       0.00000000      -0.00336785      -0.02159305       0.03290076
Pd       7.99725790       1.84552105       1.50000000  F       0.00000000       0.00000000       0.00000000      -0.00146642       0.01304548      -0.23235960
Pd       9.84277895       2.46069474       3.44535000  F       0.00000000       0.00000000       0.00000000      -0.07560559       0.03684890       0.08786051
Pd       8.00617313       1.83308050       5.40627808  F       0.00000000       0.00000000       0.00000000       0.06909566       0.02015321       0.08728439
Pd       9.82524311       2.47385827       7.50918266  T       0.00000000       0.00000000       0.00000000       0.00346849       0.00476763      -0.00022300
Pd       9.22760527       4.30621579       1.50000000  F       0.00000000       0.00000000       0.00000000      -0.00544755      -0.00295952      -0.22719131
Pd       4.92138948       4.92138948       3.44535000  F       0.00000000       0.00000000       0.00000000      -0.09783499       0.01938376       0.06991030
Pd       9.23902717       4.30520633       5.43338293  T       0.00000000       0.00000000       0.00000000       0.02098163      -0.00508997       0.01170736
Pd       4.92429708       4.96871119       7.40179891  T       0.00000000       0.00000000       0.00000000       0.01930268       0.01245830       0.01064758
Pd      10.45795264       6.76691053       1.50000000  F       0.00000000       0.00000000       0.00000000       0.00347537      -0.00675445      -0.23311760
Pd       0.00000000       7.38208422       3.44535000  F       0.00000000       0.00000000       0.00000000      -0.00400476       0.01519031       0.03958359
Pd      10.43991375       6.78245558       5.40242713  F       0.00000000       0.00000000       0.00000000      -0.06432502       0.02010030       0.20541207
Pd      12.27249312       7.45949048       7.37731086  T       0.00000000       0.00000000       0.00000000      -0.00017955      -0.00296759       0.00457618
Pd       4.92138948      11.07312632       3.44535000  F       0.00000000       0.00000000       0.00000000      -0.07827916       0.02220713       0.04925657
Pd       1.23034737       9.84277895       3.44535000  F       0.00000000       0.00000000       0.00000000       0.07414309       0.01134249       0.12382725
Pd      11.67120661       9.23591801       5.37701028  F       0.00000000       0.00000000       0.00000000      -0.05033430      -0.00604911       0.25756532
Pd       1.18404508       9.81124419       7.35134731  T       0.00000000       0.00000000       0.00000000       0.00728469      -0.01209841       0.00371182
Pd       0.61517368      11.68830001       1.50000000  F       0.00000000       0.00000000       0.00000000       0.00170257       0.00613975      -0.23325142
Pd       2.46069474       0.00000000       3.44535000  F       0.00000000       0.00000000       0.00000000       0.03478310      -0.04933602       0.10512551
Pd       2.41398105       0.00651887       7.39962421  T       0.00000000       0.00000000       0.00000000      -0.01586045      -0.00391357       0.00763531
Pd       9.23917326      10.44681622       5.43573706  T       0.00000000       0.00000000       0.00000000      -0.00887410      -0.00427291      -0.00439090
Pd       3.68060155       8.61843426       7.50157320  T       0.00000000       0.00000000       0.00000000      -0.01341531      -0.00501354       0.01485817
Pd       4.30621579       0.61517368       1.50000000  F       0.00000000       0.00000000       0.00000000       0.00259398      -0.00537295      -0.23209102
Pd      11.07312632       4.92138948       3.44535000  F       0.00000000       0.00000000       0.00000000      -0.07976828       0.01942460       0.06304454
Pd       4.30621579       6.76691053       1.50000000  F       0.00000000       0.00000000       0.00000000       0.00271203      -0.00616033      -0.23014581
Pd       3.64788270       2.48554041       7.54911259  T       0.00000000       0.00000000       0.00000000      -0.01870543       0.00634520      -0.00758311
Pd       2.40830597       6.15207331       7.38236912  T       0.00000000       0.00000000       0.00000000       0.00561248      -0.00602633       0.01480985
Pd       0.60433818       5.55187436       5.37993065  F       0.00000000       0.00000000       0.00000000       0.04576108      -0.12718982       0.13205366
Pd       2.46069474       6.15173685       3.44535000  F       0.00000000       0.00000000       0.00000000       0.03785916      -0.06373621       0.12497824
Pd       0.61517368       5.53656316       1.50000000  F       0.00000000       0.00000000       0.00000000       0.00241711       0.00456945      -0.23062027
Pd       1.20519364       3.65910163       7.40501752  T       0.00000000       0.00000000       0.00000000       0.01093490      -0.00171688       0.01456482
Pd      11.67123156       3.08419612       5.37703229  F       0.00000000       0.00000000       0.00000000       0.00538854       0.04149784       0.29890915
Pd       6.90545380       6.67646363       9.92732404  T       0.00000000       0.00000000       0.00000000      -0.01832467      -0.00353830       0.00892581
Pd       1.23034737       3.69104211       3.44535000  F       0.00000000       0.00000000       0.00000000       0.06912574       0.01470151       0.12833065
Pd      12.26796675       1.31715812       7.38083895  T       0.00000000       0.00000000       0.00000000      -0.00026622      -0.00759251       0.00041135
Pd      10.43990395       0.63072067       5.40242717  F       0.00000000       0.00000000       0.00000000      -0.04420552       0.01456952       0.16250893
Pd       0.00000000       1.23034737       3.44535000  F       0.00000000       0.00000000       0.00000000      -0.00893567       0.00395775       0.05092332
Pd       1.84552105       1.84552105       1.50000000  F       0.00000000       0.00000000       0.00000000      -0.00259395       0.01197130      -0.23221618
Pd      10.45795264       0.61517368       1.50000000  F       0.00000000       0.00000000       0.00000000       0.00436629      -0.00561729      -0.23207306
Pd      11.07023735      11.11051535       7.38449278  T       0.00000000       0.00000000       0.00000000       0.01544064       0.00665131      -0.02729618
Pd       3.08653046      10.45255056       5.43085489  T       0.00000000       0.00000000       0.00000000       0.00042409      -0.01002308       0.00262998
Pd       3.69104211       2.46069474       3.44535000  F       0.00000000       0.00000000       0.00000000      -0.06546055       0.03575537       0.08746791
Pd       1.85442396       1.83305046       5.40626716  F       0.00000000       0.00000000       0.00000000       0.07245117       0.08839447       0.19018924
Pd      11.68830001       3.07586842       1.50000000  F       0.00000000       0.00000000       0.00000000       0.00030351      -0.00951170      -0.23125754
Pd       0.77854213       0.49939427       9.89661380  T       0.00000000       0.00000000       0.00000000      -0.02417890       0.01198040      -0.01248997
Pd       2.34336818       3.49290230       9.92571170  T       0.00000000       0.00000000       0.00000000      -0.01563211       0.03195063      -0.01233623
Pd       3.85101789       6.72336970       9.90951935  T       0.00000000       0.00000000       0.00000000       0.01992075      -0.02407121      -0.00172446
Pd       6.15173685       1.23034737       3.44535000  F       0.00000000       0.00000000       0.00000000      -0.00562875       0.00856089       0.05660087
Pd       4.28818081       0.63072761       5.40241929  F       0.00000000       0.00000000       0.00000000      -0.03640970       0.04443569       0.17234203
Pd       6.10086132       1.32439202       7.38973892  T       0.00000000       0.00000000       0.00000000       0.00846061      -0.00494650      -0.00056636
Pd       5.53656316       3.07586842       1.50000000  F       0.00000000       0.00000000       0.00000000      -0.00061749      -0.00958141      -0.23201802
Pd       1.85444455       7.98478761       5.40627529  F       0.00000000       0.00000000       0.00000000       0.08711537       0.05621408       0.03111779
Pd       5.44133153       3.38787111       9.65507443  T       0.00000000       0.00000000       0.00000000       0.00030777       0.00786199       0.02039058
Pd       3.07586842      10.45795264       1.50000000  F       0.00000000       0.00000000       0.00000000      -0.00560707      -0.00178197      -0.22775309
Pd       3.07586842       4.30621579       1.50000000  F       0.00000000       0.00000000       0.00000000      -0.00435267      -0.00130828      -0.22474537
Pd       3.08437949       4.28825138       5.44020043  T       0.00000000       0.00000000       0.00000000       0.00641583      -0.00486840       0.00423857
Pd      11.09736178       4.96640307       7.40341558  T       0.00000000       0.00000000       0.00000000      -0.00237885       0.01475467       0.01255039
Pd      11.07312632      11.07312632       3.44535000  F       0.00000000       0.00000000       0.00000000      -0.08866858       0.02374430       0.06950579
Pd      10.01867822       0.56047344       9.90596424  T       0.00000000       0.00000000       0.00000000       0.00045031      -0.01933062       0.00025878
Pd       6.93624527       0.50898158       9.90348676  T       0.00000000       0.00000000       0.00000000      -0.02664687      -0.00423589      -0.00215731
Pd       8.49099244       9.62673874       9.77132409  T       0.00000000       0.00000000       0.00000000      -0.01182977       0.01039415      -0.01042436
Pd       0.76260823       6.69443144       9.91145238  T       0.00000000       0.00000000       0.00000000      -0.00731486      -0.00194749      -0.00856612
Pd       5.41191457       9.55109028       9.67537368  T       0.00000000       0.00000000       0.00000000      -0.00944781       0.00800137      -0.00542076
Pd      11.54927791       3.39562754       9.68311033  T       0.00000000       0.00000000       0.00000000       0.00339232      -0.00807540      -0.00568316
Pd       8.45772406       3.47366742       9.74846582  T       0.00000000       0.00000000       0.00000000      -0.00796705      -0.00469242      -0.00265979
Pd       9.99634570       6.69642375      10.01261199  T       0.00000000       0.00000000       0.00000000      -0.00689762      -0.01309081      -0.02040372
Pd       3.87975728       0.53640939       9.90127102  T       0.00000000       0.00000000       0.00000000      -0.01041713      -0.00935454       0.00955530
Pd       2.34677000       9.62695209       9.75539481  T       0.00000000       0.00000000       0.00000000      -0.00168840       0.00065011      -0.01103574
Pd       4.93743858      11.11372769       7.38413108  T       0.00000000       0.00000000       0.00000000       0.01041450      -0.00013922       0.01153816
Pd      11.55179868       9.56125405       9.64991003  T       0.00000000       0.00000000       0.00000000       0.00061609       0.00098341      -0.00158242
C        2.27587364       4.03279309      11.74372799  T       0.00000000       0.00000000       0.00000000      -0.02934681       0.00234725      -0.00375692
O        2.12783023       4.35500858      12.84216047  T       0.00000000       0.00000000       0.00000000       0.02036956       0.00468930       0.00178678
O       10.14829561       6.06690029      11.99282709  T       0.00000000       0.00000000       0.00000000       0.01951682       0.02918071      -0.02345605
C       10.16562793       4.72917040      12.34545549  T       0.00000000       0.00000000       0.00000000      -0.01439542      -0.03825925       0.00640278
H       10.61573869       4.67176934      13.36106420  T       0.00000000       0.00000000       0.00000000      -0.01748676      -0.00478768       0.00126156
H        9.15776148       4.25005452      12.37131078  T       0.00000000       0.00000000       0.00000000       0.00022718      -0.01165984      -0.03441647
H       10.81443512       4.07713625      11.67993434  T       0.00000000       0.00000000       0.00000000       0.01374171       0.02661736       0.01135306
