       N       E                     dE             d eps       ncg     rms          rms(c)
DAV:   1     0.132788903707E+05    0.13279E+05   -0.78129E+05 15696   0.144E+03
DAV:   2     0.222540701706E+03   -0.13056E+05   -0.12490E+05 16664   0.398E+02
DAV:   3    -0.946968907120E+03   -0.11695E+04   -0.11334E+04 15320   0.117E+02
DAV:   4    -0.976065025206E+03   -0.29096E+02   -0.28947E+02 15952   0.194E+01
DAV:   5    -0.976609942391E+03   -0.54492E+00   -0.54412E+00 15536   0.265E+00    0.134E+02
DAV:   6    -0.645260592466E+03    0.33135E+03   -0.18819E+03 14722   0.702E+01    0.109E+02
DAV:   7    -0.659681399930E+03   -0.14421E+02   -0.37967E+02 16276   0.451E+01    0.882E+01
DAV:   8    -0.578603561498E+03    0.81078E+02   -0.14900E+02 15312   0.304E+01    0.678E+01
DAV:   9    -0.604774994489E+03   -0.26171E+02   -0.88439E+01 15484   0.236E+01    0.796E+01
DAV:  10    -0.535450331846E+03    0.69325E+02   -0.75656E+01 15400   0.218E+01    0.466E+01
DAV:  11    -0.529503613170E+03    0.59467E+01   -0.40935E+01 15152   0.119E+01    0.323E+01
DAV:  12    -0.557175322643E+03   -0.27672E+02   -0.21177E+01 14904   0.827E+00    0.302E+01
DAV:  13    -0.577703768478E+03   -0.20528E+02   -0.99191E+00 15096   0.589E+00    0.290E+01
DAV:  14    -0.602901323528E+03   -0.25198E+02   -0.14822E+01 15780   0.636E+00    0.255E+01
DAV:  15    -0.618616524983E+03   -0.15715E+02   -0.87751E+00 14762   0.498E+00    0.213E+01
DAV:  16    -0.630928784876E+03   -0.12312E+02   -0.60860E+00 14704   0.386E+00    0.175E+01
DAV:  17    -0.661608552111E+03   -0.30680E+02   -0.10993E+01 14578   0.470E+00    0.184E+01
DAV:  18    -0.678026149152E+03   -0.16418E+02   -0.12593E+01 14924   0.444E+00    0.135E+01
DAV:  19    -0.706632130098E+03   -0.28606E+02   -0.27809E+01 15144   0.519E+00    0.136E+01
DAV:  20    -0.718297906335E+03   -0.11666E+02   -0.12670E+01 14992   0.408E+00    0.107E+01
DAV:  21    -0.724260832189E+03   -0.59629E+01   -0.29158E+00 14968   0.304E+00    0.922E+00
DAV:  22    -0.730597449791E+03   -0.63366E+01   -0.18957E+00 14728   0.258E+00    0.998E+00
DAV:  23    -0.734585040387E+03   -0.39876E+01   -0.11269E+00 14586   0.225E+00    0.931E+00
DAV:  24    -0.739753844585E+03   -0.51688E+01   -0.12767E+00 14732   0.187E+00    0.586E+00
DAV:  25    -0.745655118118E+03   -0.59013E+01   -0.13683E+00 14570   0.187E+00    0.592E+00
DAV:  26    -0.747419879695E+03   -0.17648E+01   -0.11366E+00 14682   0.178E+00    0.523E+00
DAV:  27    -0.749830199764E+03   -0.24103E+01   -0.82306E-01 14490   0.147E+00    0.465E+00
DAV:  28    -0.752749679802E+03   -0.29195E+01   -0.43497E-01 14468   0.103E+00    0.345E+00
DAV:  29    -0.753811630312E+03   -0.10620E+01   -0.33307E-01 14920   0.991E-01    0.352E+00
DAV:  30    -0.754390419419E+03   -0.57879E+00   -0.46121E-01 14496   0.100E+00    0.265E+00
DAV:  31    -0.755879707271E+03   -0.14893E+01   -0.31476E-01 14888   0.802E-01    0.273E+00
DAV:  32    -0.756328339182E+03   -0.44863E+00   -0.29577E-01 14650   0.723E-01    0.214E+00
DAV:  33    -0.756911612579E+03   -0.58327E+00   -0.24834E-01 14676   0.706E-01    0.198E+00
DAV:  34    -0.757375069886E+03   -0.46346E+00   -0.11412E-01 14824   0.630E-01    0.190E+00
DAV:  35    -0.757326334652E+03    0.48735E-01   -0.93907E-02 14632   0.539E-01    0.120E+00
DAV:  36    -0.757669906889E+03   -0.34357E+00   -0.14926E-01 14672   0.591E-01    0.338E+00
DAV:  37    -0.757259964249E+03    0.40994E+00   -0.14727E-02 14772   0.218E-01    0.326E+00
DAV:  38    -0.757383428772E+03   -0.12346E+00   -0.29614E-02 15274   0.311E-01    0.166E+00
DAV:  39    -0.757776108438E+03   -0.39268E+00   -0.26208E-01 17818   0.668E-01    0.308E+00
DAV:  40    -0.757904319315E+03   -0.12821E+00   -0.20111E-02 14798   0.228E-01    0.275E+00
DAV:  41    -0.757965255986E+03   -0.60937E-01   -0.69229E-03 15744   0.179E-01    0.186E+00
DAV:  42    -0.758052463023E+03   -0.87207E-01   -0.63732E-02 18880   0.330E-01    0.466E-01
DAV:  43    -0.758175449308E+03   -0.12299E+00   -0.82245E-03 14802   0.133E-01    0.212E-01
DAV:  44    -0.758290986625E+03   -0.11554E+00   -0.19209E-03 15074   0.723E-02    0.191E-01
DAV:  45    -0.758335111170E+03   -0.44125E-01   -0.83850E-04 15056   0.570E-02    0.129E-01
DAV:  46    -0.758363003681E+03   -0.27893E-01   -0.10173E-02 15528   0.132E-01    0.736E-01
DAV:  47    -0.758374157495E+03   -0.11154E-01   -0.89326E-04 14960   0.489E-02    0.494E-01
DAV:  48    -0.758380830685E+03   -0.66732E-02   -0.23839E-03 18416   0.702E-02    0.804E-02
DAV:  49    -0.758389575507E+03   -0.87448E-02   -0.16071E-03 14880   0.526E-02    0.266E-01
DAV:  50    -0.758396340634E+03   -0.67651E-02   -0.78408E-04 14984   0.402E-02    0.462E-01
DAV:  51    -0.758397574910E+03   -0.12343E-02   -0.22471E-04 14424   0.238E-02    0.351E-01
DAV:  52    -0.758398739590E+03   -0.11647E-02   -0.75474E-05 13344   0.152E-02    0.275E-01
DAV:  53    -0.758401002085E+03   -0.22625E-02   -0.28051E-04 14328   0.239E-02    0.125E-01
DAV:  54    -0.758404182994E+03   -0.31809E-02   -0.41837E-04 13856   0.262E-02    0.364E-02
DAV:  55    -0.758406933376E+03   -0.27504E-02   -0.17018E-04 14192   0.195E-02    0.129E-01
DAV:  56    -0.758408307493E+03   -0.13741E-02   -0.27501E-05 14072   0.844E-03    0.143E-01
DAV:  57    -0.758408822317E+03   -0.51482E-03   -0.27701E-06 11200   0.334E-03    0.145E-01
DAV:  58    -0.758409534811E+03   -0.71249E-03   -0.29405E-06 11320   0.287E-03    0.147E-01
DAV:  59    -0.758409985668E+03   -0.45086E-03   -0.37419E-05 10496   0.866E-03    0.936E-02
DAV:  60    -0.758410194762E+03   -0.20909E-03   -0.56486E-05 12104   0.103E-02    0.289E-02
DAV:  61    -0.758410387525E+03   -0.19276E-03   -0.15590E-05 13264   0.573E-03    0.600E-03
DAV:  62    -0.758410462783E+03   -0.75258E-04   -0.17642E-06  9480   0.216E-03    0.998E-03
DAV:  63    -0.758410497727E+03   -0.34944E-04   -0.21069E-07  8848   0.799E-04    0.927E-03
DAV:  64    -0.758410564988E+03   -0.67261E-04   -0.33400E-06  9256   0.229E-03    0.500E-03
DAV:  65    -0.758410596405E+03   -0.31417E-04   -0.75851E-07  9200   0.140E-03    0.102E-02
DAV:  66    -0.758410605410E+03   -0.90054E-05   -0.19545E-07  8944   0.796E-04    0.759E-03
DAV:  67    -0.758410607482E+03   -0.20717E-05   -0.65250E-08  8928   0.458E-04    0.594E-03
DAV:  68    -0.758410609081E+03   -0.15991E-05   -0.69607E-08  8808   0.437E-04    0.402E-03
DAV:  69    -0.758410611252E+03   -0.21709E-05   -0.40578E-08  8824   0.303E-04    0.422E-03
DAV:  70    -0.758410611965E+03   -0.71316E-06   -0.17890E-08  8664   0.217E-04
   1 F= -.78640617E+03 E0= -.78632277E+03  d E =-.786406E+03  mag=    16.3754
       N       E                     dE             d eps       ncg     rms          rms(c)
DAV:   1    -0.757182440143E+03    0.12282E+01   -0.18529E+02 15696   0.265E+01    0.400E+00
DAV:   2    -0.771276546877E+03   -0.14094E+02   -0.31176E+01 14992   0.941E+00    0.290E+01
DAV:   3    -0.759678024136E+03    0.11599E+02   -0.12166E+01 15040   0.690E+00    0.114E+01
DAV:   4    -0.758944385983E+03    0.73364E+00   -0.32941E+00 14872   0.220E+00    0.263E+00
DAV:   5    -0.758953215697E+03   -0.88297E-02   -0.39358E-01 14840   0.940E-01    0.268E+00
DAV:   6    -0.758926518663E+03    0.26697E-01   -0.14000E-01 15034   0.761E-01    0.233E+00
DAV:   7    -0.758935948663E+03   -0.94300E-02   -0.12125E-01 15042   0.595E-01    0.213E+00
DAV:   8    -0.758923406001E+03    0.12543E-01   -0.13867E-01 14970   0.585E-01    0.178E+00
DAV:   9    -0.758936222775E+03   -0.12817E-01   -0.52791E-02 14834   0.477E-01    0.168E+00
DAV:  10    -0.758926447437E+03    0.97753E-02   -0.26414E-02 14928   0.312E-01    0.833E-01
DAV:  11    -0.758926129960E+03    0.31748E-03   -0.74836E-03 14696   0.177E-01    0.543E-01
DAV:  12    -0.758927201072E+03   -0.10711E-02   -0.25449E-03 14952   0.111E-01    0.389E-01
DAV:  13    -0.758922510220E+03    0.46909E-02   -0.14865E-03 14840   0.774E-02    0.396E-01
DAV:  14    -0.758920766190E+03    0.17440E-02   -0.42577E-04 14888   0.422E-02    0.395E-01
DAV:  15    -0.758915840464E+03    0.49257E-02   -0.63601E-04 15352   0.570E-02    0.319E-01
DAV:  16    -0.758914681260E+03    0.11592E-02   -0.12482E-03 14816   0.664E-02    0.242E-01
DAV:  17    -0.758916584516E+03   -0.19033E-02   -0.50862E-04 14760   0.486E-02    0.191E-01
DAV:  18    -0.758920869898E+03   -0.42854E-02   -0.14403E-04 14624   0.254E-02    0.166E-01
DAV:  19    -0.758930969651E+03   -0.10100E-01   -0.47077E-04 14984   0.327E-02    0.132E-01
DAV:  20    -0.758940688791E+03   -0.97191E-02   -0.40963E-04 15112   0.429E-02    0.161E-01
DAV:  21    -0.758946482229E+03   -0.57934E-02   -0.28567E-04 14832   0.358E-02    0.122E-01
DAV:  22    -0.758954654032E+03   -0.81718E-02   -0.26246E-04 14896   0.324E-02    0.108E-01
DAV:  23    -0.758963321539E+03   -0.86675E-02   -0.22911E-04 15168   0.273E-02    0.779E-02
DAV:  24    -0.758975592983E+03   -0.12271E-01   -0.38424E-04 15112   0.249E-02    0.667E-02
DAV:  25    -0.758980323348E+03   -0.47304E-02   -0.16392E-04 15248   0.227E-02    0.678E-02
DAV:  26    -0.758984217697E+03   -0.38943E-02   -0.10775E-04 14784   0.193E-02    0.456E-02
DAV:  27    -0.758987061131E+03   -0.28434E-02   -0.44571E-05 14832   0.129E-02    0.355E-02
DAV:  28    -0.758989322111E+03   -0.22610E-02   -0.24934E-05 14544   0.105E-02    0.313E-02
DAV:  29    -0.758991497922E+03   -0.21758E-02   -0.14437E-05 13892   0.864E-03    0.294E-02
DAV:  30    -0.758993195825E+03   -0.16979E-02   -0.10397E-05 13004   0.750E-03    0.284E-02
DAV:  31    -0.758994529648E+03   -0.13338E-02   -0.74328E-06 11874   0.686E-03    0.238E-02
DAV:  32    -0.758995983524E+03   -0.14539E-02   -0.74381E-06 12336   0.606E-03    0.244E-02
DAV:  33    -0.758997449712E+03   -0.14662E-02   -0.77512E-06 12812   0.564E-03    0.214E-02
DAV:  34    -0.758999783761E+03   -0.23340E-02   -0.14702E-05 13280   0.472E-03    0.197E-02
DAV:  35    -0.759001420471E+03   -0.16367E-02   -0.17823E-05 12648   0.734E-03    0.186E-02
DAV:  36    -0.759002866955E+03   -0.14465E-02   -0.12213E-05 13120   0.500E-03    0.255E-02
DAV:  37    -0.759004282602E+03   -0.14156E-02   -0.20350E-05 12040   0.800E-03    0.239E-02
DAV:  38    -0.759004955177E+03   -0.67257E-03   -0.75603E-06 12304   0.342E-03    0.155E-02
DAV:  39    -0.759005451738E+03   -0.49656E-03   -0.60611E-06 11248   0.431E-03    0.958E-03
DAV:  40    -0.759005804379E+03   -0.35264E-03   -0.31025E-06 11504   0.230E-03    0.105E-02
DAV:  41    -0.759005940060E+03   -0.13568E-03   -0.13724E-06 10712   0.182E-03    0.320E-03
DAV:  42    -0.759005990469E+03   -0.50409E-04   -0.44533E-07  9640   0.950E-04    0.276E-03
DAV:  43    -0.759006026846E+03   -0.36377E-04   -0.26761E-07  9368   0.732E-04    0.261E-03
DAV:  44    -0.759006062550E+03   -0.35703E-04   -0.27261E-07  9376   0.619E-04    0.377E-03
DAV:  45    -0.759006078508E+03   -0.15959E-04   -0.14920E-07  9064   0.584E-04    0.181E-03
DAV:  46    -0.759006087275E+03   -0.87665E-05   -0.14921E-07  9224   0.551E-04    0.111E-03
DAV:  47    -0.759006092738E+03   -0.54627E-05   -0.11769E-07  9056   0.403E-04    0.162E-03
DAV:  48    -0.759006096941E+03   -0.42038E-05   -0.34198E-08  8944   0.214E-04    0.154E-03
DAV:  49    -0.759006100804E+03   -0.38627E-05   -0.24691E-08  8786   0.159E-04    0.166E-03
DAV:  50    -0.759006105777E+03   -0.49728E-05   -0.24783E-08  8760   0.142E-04    0.148E-03
DAV:  51    -0.759006111281E+03   -0.55037E-05   -0.23016E-08  8920   0.189E-04    0.777E-04
DAV:  52    -0.759006116461E+03   -0.51807E-05   -0.93540E-09  8896   0.121E-04    0.728E-04
DAV:  53    -0.759006120154E+03   -0.36925E-05   -0.32569E-09  8888   0.809E-05    0.731E-04
DAV:  54    -0.759006125245E+03   -0.50913E-05   -0.26372E-09  8800   0.764E-05    0.589E-04
DAV:  55    -0.759006131195E+03   -0.59495E-05   -0.26555E-09  8840   0.757E-05    0.572E-04
DAV:  56    -0.759006134631E+03   -0.34368E-05   -0.21725E-09  8872   0.688E-05    0.599E-04
DAV:  57    -0.759006135815E+03   -0.11832E-05   -0.93770E-10  8936   0.495E-05    0.568E-04
DAV:  58    -0.759006136434E+03   -0.61980E-06   -0.22037E-10  8896   0.391E-05
   2 F= -.78702589E+03 E0= -.78693965E+03  d E =-.619716E+00  mag=    15.2303
       N       E                     dE             d eps       ncg     rms          rms(c)
DAV:   1    -0.740608079130E+03    0.18398E+02   -0.15212E+03 15856   0.755E+01    0.106E+01
DAV:   2    -0.799881644712E+03   -0.59274E+02   -0.23035E+02 15086   0.222E+01    0.525E+01
DAV:   3    -0.766755677334E+03    0.33126E+02   -0.64194E+01 15398   0.151E+01    0.275E+01
DAV:   4    -0.759978614589E+03    0.67771E+01   -0.17093E+01 14984   0.539E+00    0.105E+01
DAV:   5    -0.759561050829E+03    0.41756E+00   -0.34551E+00 15200   0.369E+00    0.940E+00
DAV:   6    -0.759154652818E+03    0.40640E+00   -0.38241E+00 14960   0.305E+00    0.770E+00
DAV:   7    -0.758921995339E+03    0.23266E+00   -0.18416E+00 14928   0.206E+00    0.640E+00
DAV:   8    -0.758832693221E+03    0.89302E-01   -0.34245E-01 15248   0.100E+00    0.411E+00
DAV:   9    -0.759139177168E+03   -0.30648E+00   -0.46267E-01 14880   0.111E+00    0.486E+00
DAV:  10    -0.759139938507E+03   -0.76134E-03   -0.30164E-01 14794   0.964E-01    0.284E+00
DAV:  11    -0.759220872404E+03   -0.80934E-01   -0.27661E-01 14828   0.850E-01    0.286E+00
DAV:  12    -0.759225558175E+03   -0.46858E-02   -0.96275E-02 14676   0.632E-01    0.199E+00
DAV:  13    -0.759270075463E+03   -0.44517E-01   -0.67426E-02 14938   0.402E-01    0.272E+00
DAV:  14    -0.759259440769E+03    0.10635E-01   -0.93287E-03 14666   0.137E-01    0.273E+00
DAV:  15    -0.759257959002E+03    0.14818E-02   -0.50559E-04 15368   0.382E-02    0.274E+00
DAV:  16    -0.759188582878E+03    0.69376E-01   -0.17143E-02 16306   0.250E-01    0.199E+00
DAV:  17    -0.759131568830E+03    0.57014E-01   -0.52060E-02 14952   0.400E-01    0.133E+00
DAV:  18    -0.759146867937E+03   -0.15299E-01   -0.31252E-02 14492   0.312E-01    0.805E-01
DAV:  19    -0.759194124554E+03   -0.47257E-01   -0.11289E-02 14506   0.216E-01    0.551E-01
DAV:  20    -0.759212554814E+03   -0.18430E-01   -0.91413E-03 14864   0.151E-01    0.515E-01
DAV:  21    -0.759222306401E+03   -0.97516E-02   -0.44384E-03 14688   0.111E-01    0.407E-01
DAV:  22    -0.759234395531E+03   -0.12089E-01   -0.16729E-03 14532   0.853E-02    0.380E-01
DAV:  23    -0.759239959753E+03   -0.55642E-02   -0.79556E-04 14826   0.591E-02    0.369E-01
DAV:  24    -0.759243862658E+03   -0.39029E-02   -0.64158E-04 14656   0.560E-02    0.273E-01
DAV:  25    -0.759254020579E+03   -0.10158E-01   -0.59854E-04 14700   0.495E-02    0.223E-01
DAV:  26    -0.759271844096E+03   -0.17824E-01   -0.62317E-04 14724   0.459E-02    0.222E-01
DAV:  27    -0.759292389656E+03   -0.20546E-01   -0.61294E-04 14802   0.393E-02    0.177E-01
DAV:  28    -0.759304984201E+03   -0.12595E-01   -0.30441E-04 15162   0.383E-02    0.134E-01
DAV:  29    -0.759316608456E+03   -0.11624E-01   -0.21846E-04 14876   0.282E-02    0.122E-01
DAV:  30    -0.759322813782E+03   -0.62053E-02   -0.92460E-05 15272   0.216E-02    0.103E-01
DAV:  31    -0.759330512017E+03   -0.76982E-02   -0.12911E-04 14602   0.211E-02    0.113E-01
DAV:  32    -0.759334225757E+03   -0.37137E-02   -0.80140E-05 15432   0.208E-02    0.669E-02
DAV:  33    -0.759338135264E+03   -0.39095E-02   -0.74377E-05 14836   0.231E-02    0.984E-02
DAV:  34    -0.759342422732E+03   -0.42875E-02   -0.72133E-05 14768   0.161E-02    0.758E-02
DAV:  35    -0.759345879624E+03   -0.34569E-02   -0.59011E-05 14768   0.165E-02    0.542E-02
DAV:  36    -0.759349791368E+03   -0.39117E-02   -0.51610E-05 14690   0.144E-02    0.468E-02
DAV:  37    -0.759353115018E+03   -0.33237E-02   -0.24113E-05 14410   0.968E-03    0.401E-02
DAV:  38    -0.759355914091E+03   -0.27991E-02   -0.23233E-05 14416   0.101E-02    0.365E-02
DAV:  39    -0.759360590882E+03   -0.46768E-02   -0.56501E-05 15002   0.121E-02    0.330E-02
DAV:  40    -0.759364248386E+03   -0.36575E-02   -0.54632E-05 14920   0.108E-02    0.222E-02
DAV:  41    -0.759366419897E+03   -0.21715E-02   -0.16511E-05 14024   0.750E-03    0.270E-02
DAV:  42    -0.759368239556E+03   -0.18197E-02   -0.94569E-06 12800   0.559E-03    0.248E-02
DAV:  43    -0.759370485851E+03   -0.22463E-02   -0.14241E-05 12786   0.644E-03    0.377E-02
DAV:  44    -0.759371922216E+03   -0.14364E-02   -0.94865E-06 13192   0.571E-03    0.193E-02
DAV:  45    -0.759373386160E+03   -0.14639E-02   -0.10668E-05 12608   0.661E-03    0.152E-02
DAV:  46    -0.759374383101E+03   -0.99694E-03   -0.68645E-06 12992   0.323E-03    0.136E-02
DAV:  47    -0.759374635933E+03   -0.25283E-03   -0.79946E-07  9968   0.245E-03    0.870E-03
DAV:  48    -0.759375112148E+03   -0.47621E-03   -0.20902E-06 11104   0.180E-03    0.338E-03
DAV:  49    -0.759375371119E+03   -0.25897E-03   -0.11790E-06 10760   0.160E-03    0.244E-03
DAV:  50    -0.759375524825E+03   -0.15371E-03   -0.89838E-07 10016   0.124E-03    0.308E-03
DAV:  51    -0.759375548835E+03   -0.24010E-04   -0.17348E-07  9192   0.686E-04    0.183E-03
DAV:  52    -0.759375559563E+03   -0.10728E-04   -0.11328E-07  8920   0.533E-04    0.111E-03
DAV:  53    -0.759375561333E+03   -0.17707E-05   -0.73038E-08  9024   0.427E-04    0.112E-03
DAV:  54    -0.759375566488E+03   -0.51549E-05   -0.72882E-08  8888   0.337E-04    0.786E-04
DAV:  55    -0.759375571777E+03   -0.52885E-05   -0.47851E-08  8864   0.279E-04    0.686E-04
DAV:  56    -0.759375576569E+03   -0.47919E-05   -0.21939E-08  8856   0.181E-04    0.731E-04
DAV:  57    -0.759375582542E+03   -0.59733E-05   -0.17118E-08  8880   0.142E-04    0.648E-04
DAV:  58    -0.759375589464E+03   -0.69223E-05   -0.12240E-08  8904   0.121E-04    0.729E-04
DAV:  59    -0.759375597418E+03   -0.79535E-05   -0.11702E-08  8840   0.109E-04    0.894E-04
DAV:  60    -0.759375603623E+03   -0.62056E-05   -0.73730E-09  8536   0.140E-04    0.143E-03
DAV:  61    -0.759375608995E+03   -0.53716E-05   -0.76201E-09  8832   0.219E-04    0.453E-04
DAV:  62    -0.759375612019E+03   -0.30235E-05   -0.47830E-09  8888   0.181E-04    0.809E-04
DAV:  63    -0.759375613826E+03   -0.18077E-05   -0.23191E-09  8760   0.932E-05    0.765E-04
DAV:  64    -0.759375614211E+03   -0.38487E-06   -0.18502E-10  8896   0.467E-05
   3 F= -.78746437E+03 E0= -.78739041E+03  d E =-.105820E+01  mag=    12.5432
       N       E                     dE             d eps       ncg     rms          rms(c)
DAV:   1    -0.756063291126E+03    0.33123E+01   -0.33006E+02 15936   0.346E+01    0.452E+00
DAV:   2    -0.761067318603E+03   -0.50040E+01   -0.42366E+01 14992   0.764E+00    0.123E+01
DAV:   3    -0.762597384759E+03   -0.15301E+01   -0.87168E+00 15112   0.543E+00    0.177E+01
DAV:   4    -0.759648645419E+03    0.29487E+01   -0.56388E+00 14992   0.302E+00    0.501E+00
DAV:   5    -0.759694829284E+03   -0.46184E-01   -0.11124E+00 14924   0.168E+00    0.475E+00
DAV:   6    -0.759571754548E+03    0.12307E+00   -0.47469E-01 14884   0.118E+00    0.375E+00
DAV:   7    -0.759533853895E+03    0.37901E-01   -0.18260E-01 15008   0.649E-01    0.156E+00
DAV:   8    -0.759553446171E+03   -0.19592E-01   -0.11574E-01 14856   0.638E-01    0.175E+00
DAV:   9    -0.759561210164E+03   -0.77640E-02   -0.73873E-02 14888   0.574E-01    0.202E+00
DAV:  10    -0.759545447857E+03    0.15762E-01   -0.34079E-02 14756   0.366E-01    0.116E+00
DAV:  11    -0.759545494863E+03   -0.47006E-04   -0.11380E-02 14946   0.209E-01    0.525E-01
DAV:  12    -0.759552963631E+03   -0.74688E-02   -0.47219E-03 14904   0.149E-01    0.345E-01
DAV:  13    -0.759556887072E+03   -0.39234E-02   -0.19677E-03 15032   0.933E-02    0.299E-01
DAV:  14    -0.759561302229E+03   -0.44152E-02   -0.92829E-04 14904   0.610E-02    0.358E-01
DAV:  15    -0.759563286858E+03   -0.19846E-02   -0.11446E-03 14832   0.542E-02    0.331E-01
DAV:  16    -0.759564724624E+03   -0.14378E-02   -0.68519E-04 14904   0.556E-02    0.209E-01
DAV:  17    -0.759560641286E+03    0.40833E-02   -0.48782E-04 15144   0.430E-02    0.205E-01
DAV:  18    -0.759558045366E+03    0.25959E-02   -0.16997E-04 15088   0.246E-02    0.192E-01
DAV:  19    -0.759549855961E+03    0.81894E-02   -0.12335E-04 14992   0.188E-02    0.178E-01
DAV:  20    -0.759539721803E+03    0.10134E-01   -0.14551E-04 15032   0.275E-02    0.149E-01
DAV:  21    -0.759524694279E+03    0.15028E-01   -0.29836E-04 14840   0.351E-02    0.128E-01
DAV:  22    -0.759503341543E+03    0.21353E-01   -0.36535E-04 14952   0.392E-02    0.153E-01
DAV:  23    -0.759488537559E+03    0.14804E-01   -0.39890E-04 14880   0.408E-02    0.107E-01
DAV:  24    -0.759486439691E+03    0.20979E-02   -0.26075E-04 14640   0.357E-02    0.101E-01
DAV:  25    -0.759491223544E+03   -0.47839E-02   -0.18702E-04 14436   0.257E-02    0.925E-02
DAV:  26    -0.759500300013E+03   -0.90765E-02   -0.13714E-04 14736   0.213E-02    0.576E-02
DAV:  27    -0.759516677313E+03   -0.16377E-01   -0.20160E-04 14638   0.183E-02    0.529E-02
DAV:  28    -0.759528891552E+03   -0.12214E-01   -0.13523E-04 14986   0.189E-02    0.495E-02
DAV:  29    -0.759540939048E+03   -0.12047E-01   -0.12314E-04 14358   0.146E-02    0.363E-02
DAV:  30    -0.759547726068E+03   -0.67870E-02   -0.39821E-05 14352   0.107E-02    0.372E-02
DAV:  31    -0.759555791448E+03   -0.80654E-02   -0.35637E-05 13282   0.893E-03    0.285E-02
DAV:  32    -0.759563481555E+03   -0.76901E-02   -0.21616E-05 13864   0.778E-03    0.224E-02
DAV:  33    -0.759568669192E+03   -0.51876E-02   -0.12270E-05 13656   0.637E-03    0.272E-02
DAV:  34    -0.759572406500E+03   -0.37373E-02   -0.79459E-06 13376   0.530E-03    0.180E-02
DAV:  35    -0.759575544239E+03   -0.31377E-02   -0.14386E-05 11568   0.116E-02    0.607E-02
DAV:  36    -0.759576965879E+03   -0.14216E-02   -0.61482E-06 13034   0.529E-03    0.450E-02
DAV:  37    -0.759577554212E+03   -0.58833E-03   -0.47020E-06 10264   0.699E-03    0.918E-03
DAV:  38    -0.759577791759E+03   -0.23755E-03   -0.26439E-06 11472   0.351E-03    0.145E-02
DAV:  39    -0.759577961666E+03   -0.16991E-03   -0.68463E-07  8882   0.175E-03    0.133E-02
DAV:  40    -0.759578090106E+03   -0.12844E-03   -0.30444E-07  9016   0.121E-03    0.112E-02
DAV:  41    -0.759578234517E+03   -0.14441E-03   -0.31782E-07  9272   0.122E-03    0.689E-03
DAV:  42    -0.759578318098E+03   -0.83581E-04   -0.27914E-07  8968   0.127E-03    0.216E-03
DAV:  43    -0.759578366750E+03   -0.48653E-04   -0.19518E-07  8976   0.956E-04    0.332E-03
DAV:  44    -0.759578393562E+03   -0.26812E-04   -0.83180E-08  8936   0.472E-04    0.233E-03
DAV:  45    -0.759578409773E+03   -0.16211E-04   -0.47471E-08  8880   0.357E-04    0.156E-03
DAV:  46    -0.759578437150E+03   -0.27377E-04   -0.10593E-07  9026   0.398E-04    0.972E-04
DAV:  47    -0.759578442914E+03   -0.57644E-05   -0.23035E-08  8896   0.271E-04    0.913E-04
DAV:  48    -0.759578448474E+03   -0.55600E-05   -0.16009E-08  8768   0.174E-04    0.110E-03
DAV:  49    -0.759578452062E+03   -0.35875E-05   -0.10685E-08  8904   0.138E-04    0.113E-03
DAV:  50    -0.759578454792E+03   -0.27304E-05   -0.96486E-09  8840   0.123E-04    0.105E-03
DAV:  51    -0.759578456127E+03   -0.13346E-05   -0.67574E-09  8792   0.107E-04    0.982E-04
DAV:  52    -0.759578456656E+03   -0.52899E-06   -0.34119E-09  8936   0.914E-05
   4 F= -.78763530E+03 E0= -.78755574E+03  d E =-.122913E+01  mag=    13.6775
       N       E                     dE             d eps       ncg     rms          rms(c)
DAV:   1    -0.759376622276E+03    0.20183E+00   -0.23389E+01 15608   0.922E+00    0.117E+00
DAV:   2    -0.759718314667E+03   -0.34169E+00   -0.28270E+00 14928   0.202E+00    0.348E+00
DAV:   3    -0.759741133203E+03   -0.22819E-01   -0.69588E-01 15024   0.132E+00    0.448E+00
DAV:   4    -0.759603425518E+03    0.13771E+00   -0.23354E-01 14788   0.687E-01    0.130E+00
DAV:   5    -0.759617544018E+03   -0.14118E-01   -0.25261E-02 14684   0.372E-01    0.144E+00
DAV:   6    -0.759604815042E+03    0.12729E-01   -0.26138E-02 14810   0.320E-01    0.590E-01
DAV:   7    -0.759607388400E+03   -0.25734E-02   -0.11748E-02 14976   0.212E-01    0.578E-01
DAV:   8    -0.759605725703E+03    0.16627E-02   -0.81169E-03 14864   0.214E-01    0.436E-01
DAV:   9    -0.759603554927E+03    0.21708E-02   -0.27422E-03 15000   0.136E-01    0.249E-01
DAV:  10    -0.759603542126E+03    0.12801E-04   -0.13591E-03 15024   0.689E-02    0.321E-01
DAV:  11    -0.759602223434E+03    0.13187E-02   -0.35701E-04 14890   0.401E-02    0.194E-01
DAV:  12    -0.759601583573E+03    0.63986E-03   -0.10149E-04 15112   0.316E-02    0.106E-01
DAV:  13    -0.759601247732E+03    0.33584E-03   -0.73689E-05 14754   0.183E-02    0.718E-02
DAV:  14    -0.759600765770E+03    0.48196E-03   -0.31591E-05 14800   0.135E-02    0.479E-02
DAV:  15    -0.759600563793E+03    0.20198E-03   -0.48439E-05 14720   0.135E-02    0.569E-02
DAV:  16    -0.759600440410E+03    0.12338E-03   -0.42029E-05 14080   0.119E-02    0.399E-02
DAV:  17    -0.759600312109E+03    0.12830E-03   -0.28157E-05 14392   0.815E-03    0.355E-02
DAV:  18    -0.759600453257E+03   -0.14115E-03   -0.31853E-05 14672   0.108E-02    0.349E-02
DAV:  19    -0.759600601033E+03   -0.14778E-03   -0.43999E-05 13904   0.113E-02    0.397E-02
DAV:  20    -0.759600813870E+03   -0.21284E-03   -0.27099E-05 14044   0.100E-02    0.551E-02
DAV:  21    -0.759601174376E+03   -0.36051E-03   -0.15246E-05 14088   0.782E-03    0.342E-02
DAV:  22    -0.759601650183E+03   -0.47581E-03   -0.10063E-05 13032   0.745E-03    0.189E-02
DAV:  23    -0.759602046077E+03   -0.39589E-03   -0.54647E-06 11992   0.555E-03    0.186E-02
DAV:  24    -0.759602535744E+03   -0.48967E-03   -0.22270E-06 10808   0.304E-03    0.180E-02
DAV:  25    -0.759603050576E+03   -0.51483E-03   -0.15280E-06 10090   0.276E-03    0.158E-02
DAV:  26    -0.759604264851E+03   -0.12143E-02   -0.46620E-06 11508   0.336E-03    0.869E-03
DAV:  27    -0.759605118350E+03   -0.85350E-03   -0.41273E-06 11594   0.344E-03    0.969E-03
DAV:  28    -0.759605643243E+03   -0.52489E-03   -0.24548E-06 10984   0.277E-03    0.980E-03
DAV:  29    -0.759606078245E+03   -0.43500E-03   -0.19751E-06 11064   0.208E-03    0.769E-03
DAV:  30    -0.759606549046E+03   -0.47080E-03   -0.23075E-06 11272   0.232E-03    0.495E-03
DAV:  31    -0.759606797423E+03   -0.24838E-03   -0.80567E-07  9928   0.184E-03    0.568E-03
DAV:  32    -0.759607120497E+03   -0.32307E-03   -0.74947E-07 10088   0.135E-03    0.593E-03
DAV:  33    -0.759607467938E+03   -0.34744E-03   -0.97247E-07 10408   0.134E-03    0.460E-03
DAV:  34    -0.759607782916E+03   -0.31498E-03   -0.11456E-06 10658   0.129E-03    0.253E-03
DAV:  35    -0.759607943196E+03   -0.16028E-03   -0.49743E-07 10040   0.737E-04    0.167E-03
DAV:  36    -0.759608016377E+03   -0.73181E-04   -0.20517E-07  9448   0.630E-04    0.204E-03
DAV:  37    -0.759608063125E+03   -0.46748E-04   -0.15652E-07  9344   0.470E-04    0.266E-03
DAV:  38    -0.759608088760E+03   -0.25635E-04   -0.93912E-08  9056   0.368E-04    0.203E-03
DAV:  39    -0.759608098263E+03   -0.95034E-05   -0.58102E-08  8824   0.353E-04    0.942E-04
DAV:  40    -0.759608101255E+03   -0.29916E-05   -0.28835E-08  8898   0.238E-04    0.693E-04
DAV:  41    -0.759608102143E+03   -0.88802E-06   -0.11684E-08  8944   0.130E-04
   5 F= -.78767344E+03 E0= -.78759657E+03  d E =-.126727E+01  mag=    13.2875
       N       E                     dE             d eps       ncg     rms          rms(c)
DAV:   1    -0.759368884493E+03    0.23922E+00   -0.10067E+02 14336   0.153E+01    0.225E+00
DAV:   2    -0.759978569244E+03   -0.60968E+00   -0.63650E+00 14912   0.315E+00    0.316E+00
DAV:   3    -0.760830091975E+03   -0.85152E+00   -0.21722E+00 15560   0.235E+00    0.101E+01
DAV:   4    -0.760003941988E+03    0.82615E+00   -0.34124E+00 15392   0.224E+00    0.437E+00
DAV:   5    -0.759919148325E+03    0.84794E-01   -0.39665E-01 14828   0.787E-01    0.144E+00
DAV:   6    -0.759920465681E+03   -0.13174E-02   -0.60128E-02 14880   0.479E-01    0.121E+00
DAV:   7    -0.759914914610E+03    0.55511E-02   -0.32586E-02 14890   0.345E-01    0.897E-01
DAV:   8    -0.759913032988E+03    0.18816E-02   -0.18972E-02 14898   0.276E-01    0.541E-01
DAV:   9    -0.759911044730E+03    0.19883E-02   -0.77750E-03 15048   0.208E-01    0.387E-01
DAV:  10    -0.759909319695E+03    0.17250E-02   -0.32636E-03 14898   0.125E-01    0.209E-01
DAV:  11    -0.759910012421E+03   -0.69273E-03   -0.96533E-04 14834   0.651E-02    0.133E-01
DAV:  12    -0.759910463173E+03   -0.45075E-03   -0.20398E-04 15000   0.379E-02    0.603E-02
DAV:  13    -0.759911550291E+03   -0.10871E-02   -0.85435E-05 14848   0.226E-02    0.767E-02
DAV:  14    -0.759912297023E+03   -0.74673E-03   -0.42617E-05 14792   0.179E-02    0.290E-02
DAV:  15    -0.759913183785E+03   -0.88676E-03   -0.29089E-05 14632   0.111E-02    0.278E-02
DAV:  16    -0.759913613042E+03   -0.42926E-03   -0.25556E-05 14152   0.811E-03    0.305E-02
DAV:  17    -0.759914105158E+03   -0.49212E-03   -0.10073E-05 11800   0.598E-03    0.211E-02
DAV:  18    -0.759915063722E+03   -0.95856E-03   -0.12760E-05 12328   0.441E-03    0.185E-02
DAV:  19    -0.759915642531E+03   -0.57881E-03   -0.13184E-05 11944   0.527E-03    0.162E-02
DAV:  20    -0.759916616261E+03   -0.97373E-03   -0.18129E-05 12448   0.526E-03    0.959E-03
DAV:  21    -0.759917219070E+03   -0.60281E-03   -0.71230E-06 12408   0.314E-03    0.965E-03
DAV:  22    -0.759917687093E+03   -0.46802E-03   -0.27398E-06 11440   0.276E-03    0.111E-02
DAV:  23    -0.759918195226E+03   -0.50813E-03   -0.27261E-06 11248   0.269E-03    0.750E-03
DAV:  24    -0.759918564592E+03   -0.36937E-03   -0.15769E-06 10292   0.198E-03    0.620E-03
DAV:  25    -0.759918738183E+03   -0.17359E-03   -0.62988E-07  9264   0.139E-03    0.489E-03
DAV:  26    -0.759919095331E+03   -0.35715E-03   -0.11145E-06 10036   0.260E-03    0.120E-02
DAV:  27    -0.759919349842E+03   -0.25451E-03   -0.68796E-07  9944   0.135E-03    0.142E-02
DAV:  28    -0.759919579593E+03   -0.22975E-03   -0.42849E-07  9560   0.122E-03    0.102E-02
DAV:  29    -0.759919791187E+03   -0.21159E-03   -0.50474E-07  9872   0.174E-03    0.274E-03
DAV:  30    -0.759919928544E+03   -0.13736E-03   -0.41178E-07  9680   0.903E-04    0.187E-03
DAV:  31    -0.759920015328E+03   -0.86784E-04   -0.16433E-07  9096   0.653E-04    0.133E-03
DAV:  32    -0.759920100464E+03   -0.85136E-04   -0.15460E-07  9480   0.453E-04    0.117E-03
DAV:  33    -0.759920150386E+03   -0.49922E-04   -0.92594E-08  8984   0.412E-04    0.773E-04
DAV:  34    -0.759920170271E+03   -0.19885E-04   -0.48597E-08  8880   0.299E-04    0.695E-04
DAV:  35    -0.759920178842E+03   -0.85712E-05   -0.23972E-08  8936   0.208E-04    0.601E-04
DAV:  36    -0.759920182849E+03   -0.40068E-05   -0.13781E-08  8960   0.145E-04    0.516E-04
DAV:  37    -0.759920184853E+03   -0.20037E-05   -0.81527E-09  8864   0.115E-04    0.503E-04
DAV:  38    -0.759920186393E+03   -0.15406E-05   -0.72549E-09  8824   0.883E-05    0.490E-04
DAV:  39    -0.759920187150E+03   -0.75670E-06   -0.34269E-09  8840   0.715E-05
   6 F= -.78798067E+03 E0= -.78790466E+03  d E =-.307226E+00  mag=    13.1836
       N       E                     dE             d eps       ncg     rms          rms(c)
DAV:   1    -0.759598451077E+03    0.32174E+00   -0.76261E+01 14304   0.133E+01    0.199E+00
DAV:   2    -0.760034528545E+03   -0.43608E+00   -0.48187E+00 14944   0.273E+00    0.190E+00
DAV:   3    -0.760102861642E+03   -0.68333E-01   -0.25849E-01 14970   0.949E-01    0.347E+00
DAV:   4    -0.760252905922E+03   -0.15004E+00   -0.11005E+00 15192   0.131E+00    0.582E+00
DAV:   5    -0.760000988512E+03    0.25192E+00   -0.62233E-01 15200   0.109E+00    0.150E+00
DAV:   6    -0.760017635220E+03   -0.16647E-01   -0.49401E-02 14792   0.452E-01    0.999E-01
DAV:   7    -0.760014601706E+03    0.30335E-02   -0.22289E-02 14828   0.304E-01    0.773E-01
DAV:   8    -0.760012458141E+03    0.21436E-02   -0.17516E-02 14922   0.262E-01    0.455E-01
DAV:   9    -0.760011348326E+03    0.11098E-02   -0.74028E-03 14722   0.177E-01    0.315E-01
DAV:  10    -0.760010570594E+03    0.77773E-03   -0.21519E-03 14976   0.983E-02    0.220E-01
DAV:  11    -0.760010748058E+03   -0.17746E-03   -0.51191E-04 14912   0.506E-02    0.116E-01
DAV:  12    -0.760011049574E+03   -0.30152E-03   -0.11772E-04 14930   0.312E-02    0.471E-02
DAV:  13    -0.760011705754E+03   -0.65618E-03   -0.86556E-05 14888   0.162E-02    0.348E-02
DAV:  14    -0.760012122130E+03   -0.41638E-03   -0.36195E-05 14824   0.123E-02    0.362E-02
DAV:  15    -0.760012379416E+03   -0.25729E-03   -0.41347E-05 14312   0.104E-02    0.341E-02
DAV:  16    -0.760012675044E+03   -0.29563E-03   -0.14289E-05 13440   0.778E-03    0.246E-02
DAV:  17    -0.760013116262E+03   -0.44122E-03   -0.10538E-05 13170   0.650E-03    0.195E-02
DAV:  18    -0.760013517237E+03   -0.40097E-03   -0.12459E-05 13144   0.537E-03    0.191E-02
DAV:  19    -0.760013779455E+03   -0.26222E-03   -0.14045E-05 12584   0.724E-03    0.351E-02
DAV:  20    -0.760013929423E+03   -0.14997E-03   -0.14610E-05 12824   0.558E-03    0.344E-02
DAV:  21    -0.760014243541E+03   -0.31412E-03   -0.10210E-05 12012   0.622E-03    0.109E-02
DAV:  22    -0.760014626683E+03   -0.38314E-03   -0.60686E-06 12528   0.388E-03    0.106E-02
DAV:  23    -0.760014873605E+03   -0.24692E-03   -0.18076E-06 10520   0.245E-03    0.112E-02
DAV:  24    -0.760015212056E+03   -0.33845E-03   -0.13765E-06 10494   0.215E-03    0.169E-02
DAV:  25    -0.760015543676E+03   -0.33162E-03   -0.17819E-06 10912   0.253E-03    0.834E-03
DAV:  26    -0.760015828437E+03   -0.28476E-03   -0.22152E-06 10840   0.264E-03    0.652E-03
DAV:  27    -0.760015982864E+03   -0.15443E-03   -0.11738E-06 10192   0.174E-03    0.441E-03
DAV:  28    -0.760016013980E+03   -0.31116E-04   -0.87467E-07  9418   0.168E-03    0.425E-03
DAV:  29    -0.760015976930E+03    0.37050E-04   -0.96128E-07 10360   0.129E-03    0.333E-03
DAV:  30    -0.760015952233E+03    0.24697E-04   -0.37747E-07  9416   0.836E-04    0.280E-03
DAV:  31    -0.760015952480E+03   -0.24657E-06   -0.19116E-07  9232   0.691E-04
   7 F= -.78807219E+03 E0= -.78799503E+03  d E =-.398753E+00  mag=    13.1855
       N       E                     dE             d eps       ncg     rms          rms(c)
DAV:   1    -0.759828530742E+03    0.18742E+00   -0.24617E+01 17596   0.111E+01    0.157E+00
DAV:   2    -0.761236414074E+03   -0.14079E+01   -0.54095E+00 14880   0.318E+00    0.106E+01
DAV:   3    -0.760167629555E+03    0.10688E+01   -0.26670E+00 14968   0.229E+00    0.314E+00
DAV:   4    -0.760164320476E+03    0.33091E-02   -0.26682E-01 14708   0.830E-01    0.146E+00
DAV:   5    -0.760170089085E+03   -0.57686E-02   -0.73386E-02 14792   0.556E-01    0.199E+00
DAV:   6    -0.760147518088E+03    0.22571E-01   -0.39812E-02 14742   0.355E-01    0.596E-01
DAV:   7    -0.760148860215E+03   -0.13421E-02   -0.94725E-03 15000   0.205E-01    0.529E-01
DAV:   8    -0.760149978825E+03   -0.11186E-02   -0.80568E-03 14962   0.241E-01    0.654E-01
DAV:   9    -0.760147717541E+03    0.22613E-02   -0.72244E-03 14948   0.175E-01    0.323E-01
DAV:  10    -0.760147010245E+03    0.70730E-03   -0.22176E-03 14976   0.105E-01    0.156E-01
DAV:  11    -0.760147327825E+03   -0.31758E-03   -0.53433E-04 14888   0.494E-02    0.120E-01
DAV:  12    -0.760147576404E+03   -0.24858E-03   -0.19499E-04 14944   0.295E-02    0.983E-02
DAV:  13    -0.760147677664E+03   -0.10126E-03   -0.11113E-04 15010   0.213E-02    0.718E-02
DAV:  14    -0.760147714507E+03   -0.36843E-04   -0.13428E-04 14682   0.204E-02    0.744E-02
DAV:  15    -0.760147632152E+03    0.82355E-04   -0.60799E-05 14456   0.148E-02    0.501E-02
DAV:  16    -0.760147572406E+03    0.59746E-04   -0.11415E-05 14264   0.652E-03    0.477E-02
DAV:  17    -0.760147355029E+03    0.21738E-03   -0.67474E-06 12888   0.534E-03    0.480E-02
DAV:  18    -0.760146773577E+03    0.58145E-03   -0.94281E-06 13384   0.661E-03    0.383E-02
DAV:  19    -0.760145889622E+03    0.88396E-03   -0.18168E-05 13616   0.787E-03    0.383E-02
DAV:  20    -0.760145004832E+03    0.88479E-03   -0.42346E-05 14024   0.108E-02    0.374E-02
DAV:  21    -0.760143020668E+03    0.19842E-02   -0.46987E-05 14338   0.112E-02    0.314E-02
DAV:  22    -0.760142230119E+03    0.79055E-03   -0.19137E-05 14528   0.903E-03    0.218E-02
DAV:  23    -0.760142533738E+03   -0.30362E-03   -0.11394E-05 13552   0.628E-03    0.185E-02
DAV:  24    -0.760142899741E+03   -0.36600E-03   -0.93479E-06 12128   0.564E-03    0.189E-02
DAV:  25    -0.760143543599E+03   -0.64386E-03   -0.78191E-06 11544   0.411E-03    0.188E-02
DAV:  26    -0.760144121440E+03   -0.57784E-03   -0.58719E-06 11636   0.376E-03    0.139E-02
DAV:  27    -0.760144760936E+03   -0.63950E-03   -0.61367E-06 11600   0.416E-03    0.118E-02
DAV:  28    -0.760146031174E+03   -0.12702E-02   -0.12188E-05 12200   0.392E-03    0.143E-02
DAV:  29    -0.760146954349E+03   -0.92318E-03   -0.62135E-06 11976   0.395E-03    0.106E-02
DAV:  30    -0.760147719780E+03   -0.76543E-03   -0.49222E-06 11856   0.322E-03    0.694E-03
DAV:  31    -0.760148277441E+03   -0.55766E-03   -0.20470E-06 11376   0.192E-03    0.618E-03
DAV:  32    -0.760148648254E+03   -0.37081E-03   -0.66849E-07  9880   0.151E-03    0.507E-03
DAV:  33    -0.760149119172E+03   -0.47092E-03   -0.75519E-07  9924   0.175E-03    0.612E-03
DAV:  34    -0.760149735313E+03   -0.61614E-03   -0.12857E-06 10736   0.146E-03    0.366E-03
DAV:  35    -0.760150046639E+03   -0.31133E-03   -0.66556E-07 10200   0.123E-03    0.272E-03
DAV:  36    -0.760150169483E+03   -0.12284E-03   -0.24132E-07  9216   0.760E-04    0.210E-03
DAV:  37    -0.760150267318E+03   -0.97835E-04   -0.20325E-07  9416   0.598E-04    0.106E-03
DAV:  38    -0.760150309073E+03   -0.41755E-04   -0.91936E-08  8888   0.496E-04    0.993E-04
DAV:  39    -0.760150331273E+03   -0.22200E-04   -0.53449E-08  8920   0.336E-04    0.647E-04
DAV:  40    -0.760150346182E+03   -0.14909E-04   -0.37987E-08  8864   0.224E-04    0.487E-04
DAV:  41    -0.760150352130E+03   -0.59479E-05   -0.17198E-08  8856   0.165E-04    0.453E-04
DAV:  42    -0.760150357094E+03   -0.49637E-05   -0.12928E-08  8776   0.116E-04    0.409E-04
DAV:  43    -0.760150360491E+03   -0.33972E-05   -0.97412E-09  8776   0.104E-04    0.351E-04
DAV:  44    -0.760150362180E+03   -0.16890E-05   -0.53955E-09  8792   0.738E-05    0.335E-04
DAV:  45    -0.760150362805E+03   -0.62515E-06   -0.22994E-09  8848   0.478E-05
   8 F= -.78819217E+03 E0= -.78811417E+03  d E =-.119980E+00  mag=    13.5243
       N       E                     dE             d eps       ncg     rms          rms(c)
DAV:   1    -0.759961091887E+03    0.18927E+00   -0.17856E+01 17608   0.941E+00    0.133E+00
DAV:   2    -0.761036403546E+03   -0.10753E+01   -0.39378E+00 14800   0.274E+00    0.932E+00
DAV:   3    -0.760208675747E+03    0.82773E+00   -0.25987E+00 14976   0.201E+00    0.283E+00
DAV:   4    -0.760205649000E+03    0.30267E-02   -0.19596E-01 14682   0.721E-01    0.127E+00
DAV:   5    -0.760208276294E+03   -0.26273E-02   -0.52899E-02 14784   0.474E-01    0.167E+00
DAV:   6    -0.760192533348E+03    0.15743E-01   -0.25541E-02 14742   0.297E-01    0.476E-01
DAV:   7    -0.760193525434E+03   -0.99209E-03   -0.57923E-03 14992   0.165E-01    0.424E-01
DAV:   8    -0.760194224553E+03   -0.69912E-03   -0.45808E-03 14954   0.194E-01    0.543E-01
DAV:   9    -0.760192461837E+03    0.17627E-02   -0.36966E-03 14936   0.146E-01    0.255E-01
DAV:  10    -0.760192044810E+03    0.41703E-03   -0.14789E-03 15216   0.864E-02    0.135E-01
DAV:  11    -0.760192180711E+03   -0.13590E-03   -0.40135E-04 14886   0.444E-02    0.102E-01
DAV:  12    -0.760192327182E+03   -0.14647E-03   -0.15591E-04 14876   0.265E-02    0.791E-02
DAV:  13    -0.760192371711E+03   -0.44529E-04   -0.63625E-05 15050   0.174E-02    0.608E-02
DAV:  14    -0.760192357220E+03    0.14490E-04   -0.38786E-05 14570   0.122E-02    0.487E-02
DAV:  15    -0.760192342360E+03    0.14860E-04   -0.17322E-05 14496   0.925E-03    0.400E-02
DAV:  16    -0.760192310343E+03    0.32017E-04   -0.17760E-05 13528   0.749E-03    0.436E-02
DAV:  17    -0.760192206480E+03    0.10386E-03   -0.99305E-06 12264   0.609E-03    0.409E-02
DAV:  18    -0.760191909250E+03    0.29723E-03   -0.69770E-06 12536   0.501E-03    0.339E-02
DAV:  19    -0.760191457399E+03    0.45185E-03   -0.18210E-05 12768   0.713E-03    0.351E-02
DAV:  20    -0.760190798841E+03    0.65856E-03   -0.22782E-05 13248   0.747E-03    0.255E-02
DAV:  21    -0.760189157482E+03    0.16414E-02   -0.20082E-05 14260   0.700E-03    0.189E-02
DAV:  22    -0.760189089305E+03    0.68178E-04   -0.97581E-06 13736   0.580E-03    0.215E-02
DAV:  23    -0.760189322316E+03   -0.23301E-03   -0.57080E-06 11872   0.485E-03    0.141E-02
DAV:  24    -0.760189787881E+03   -0.46557E-03   -0.60809E-06 11576   0.433E-03    0.177E-02
DAV:  25    -0.760189941817E+03   -0.15394E-03   -0.22741E-06 10840   0.280E-03    0.158E-02
DAV:  26    -0.760190188350E+03   -0.24653E-03   -0.26641E-06 10672   0.263E-03    0.997E-03
DAV:  27    -0.760190816900E+03   -0.62855E-03   -0.67327E-06 11612   0.368E-03    0.120E-02
DAV:  28    -0.760191405488E+03   -0.58859E-03   -0.51666E-06 11682   0.317E-03    0.103E-02
DAV:  29    -0.760192062849E+03   -0.65736E-03   -0.42808E-06 11744   0.235E-03    0.777E-03
DAV:  30    -0.760192619397E+03   -0.55655E-03   -0.33172E-06 11472   0.222E-03    0.707E-03
DAV:  31    -0.760192979943E+03   -0.36055E-03   -0.12812E-06 10776   0.182E-03    0.577E-03
DAV:  32    -0.760193322392E+03   -0.34245E-03   -0.72027E-07  9944   0.134E-03    0.347E-03
DAV:  33    -0.760193763580E+03   -0.44119E-03   -0.77287E-07 10336   0.121E-03    0.293E-03
DAV:  34    -0.760194071561E+03   -0.30798E-03   -0.58004E-07  9562   0.144E-03    0.457E-03
DAV:  35    -0.760194389844E+03   -0.31828E-03   -0.76899E-07 10464   0.113E-03    0.311E-03
DAV:  36    -0.760194525818E+03   -0.13597E-03   -0.29989E-07  9568   0.923E-04    0.180E-03
DAV:  37    -0.760194618742E+03   -0.92924E-04   -0.23382E-07  9568   0.698E-04    0.139E-03
DAV:  38    -0.760194661986E+03   -0.43244E-04   -0.94879E-08  8952   0.420E-04    0.100E-03
DAV:  39    -0.760194686452E+03   -0.24466E-04   -0.69292E-08  9008   0.303E-04    0.665E-04
DAV:  40    -0.760194695227E+03   -0.87749E-05   -0.22533E-08  8856   0.189E-04    0.548E-04
DAV:  41    -0.760194701938E+03   -0.67116E-05   -0.16238E-08  8802   0.135E-04    0.454E-04
DAV:  42    -0.760194705975E+03   -0.40368E-05   -0.10172E-08  8784   0.113E-04    0.330E-04
DAV:  43    -0.760194708094E+03   -0.21188E-05   -0.52079E-09  8792   0.889E-05    0.315E-04
DAV:  44    -0.760194709244E+03   -0.11506E-05   -0.27240E-09  8792   0.609E-05    0.301E-04
DAV:  45    -0.760194710052E+03   -0.80769E-06   -0.17333E-09  8736   0.485E-05
   9 F= -.78822419E+03 E0= -.78814584E+03  d E =-.151992E+00  mag=    13.7917
       N       E                     dE             d eps       ncg     rms          rms(c)
DAV:   1    -0.760154468429E+03    0.40241E-01   -0.11445E+01 15104   0.643E+00    0.776E-01
DAV:   2    -0.760306709490E+03   -0.15224E+00   -0.11570E+00 14912   0.140E+00    0.262E+00
DAV:   3    -0.760269643002E+03    0.37066E-01   -0.30758E-01 14936   0.771E-01    0.193E+00
DAV:   4    -0.760250239871E+03    0.19403E-01   -0.39895E-02 14820   0.386E-01    0.823E-01
DAV:   5    -0.760248484527E+03    0.17553E-02   -0.81695E-03 14762   0.203E-01    0.416E-01
DAV:   6    -0.760249845251E+03   -0.13607E-02   -0.62600E-03 14844   0.163E-01    0.495E-01
DAV:   7    -0.760249795306E+03    0.49945E-04   -0.43860E-03 14850   0.156E-01    0.460E-01
DAV:   8    -0.760249758153E+03    0.37153E-04   -0.30336E-03 14838   0.148E-01    0.389E-01
DAV:   9    -0.760248857962E+03    0.90019E-03   -0.11034E-03 14696   0.946E-02    0.162E-01
DAV:  10    -0.760248816813E+03    0.41148E-04   -0.36977E-04 14840   0.422E-02    0.900E-02
DAV:  11    -0.760248748770E+03    0.68043E-04   -0.67038E-05 14944   0.195E-02    0.451E-02
DAV:  12    -0.760248739541E+03    0.92289E-05   -0.39193E-05 14720   0.150E-02    0.403E-02
DAV:  13    -0.760248717640E+03    0.21901E-04   -0.16340E-05 13972   0.774E-03    0.270E-02
DAV:  14    -0.760248704126E+03    0.13514E-04   -0.50335E-06 13432   0.552E-03    0.245E-02
DAV:  15    -0.760248688324E+03    0.15802E-04   -0.32842E-06 10168   0.485E-03    0.122E-02
DAV:  16    -0.760248680113E+03    0.82105E-05   -0.35633E-06  9112   0.316E-03    0.969E-03
DAV:  17    -0.760248661086E+03    0.19027E-04   -0.10114E-06  9104   0.230E-03    0.576E-03
DAV:  18    -0.760248645108E+03    0.15978E-04   -0.48692E-07  8976   0.202E-03    0.749E-03
DAV:  19    -0.760248624097E+03    0.21011E-04   -0.94556E-07  9048   0.172E-03    0.888E-03
DAV:  20    -0.760248606142E+03    0.17955E-04   -0.80315E-07  8946   0.163E-03    0.647E-03
DAV:  21    -0.760248581173E+03    0.24969E-04   -0.55298E-07  9454   0.133E-03    0.457E-03
DAV:  22    -0.760248581063E+03    0.11036E-06   -0.32768E-07  9250   0.128E-03
  10 F= -.78827135E+03 E0= -.78819267E+03  d E =-.471599E-01  mag=    13.7487
       N       E                     dE             d eps       ncg     rms          rms(c)
DAV:   1    -0.760036691752E+03    0.21189E+00   -0.30727E+01 15064   0.105E+01    0.128E+00
DAV:   2    -0.760444440868E+03   -0.40775E+00   -0.31558E+00 14928   0.230E+00    0.418E+00
DAV:   3    -0.760356504703E+03    0.87936E-01   -0.84703E-01 14984   0.126E+00    0.327E+00
DAV:   4    -0.760296014486E+03    0.60490E-01   -0.16254E-01 14758   0.634E-01    0.134E+00
DAV:   5    -0.760291391548E+03    0.46229E-02   -0.32422E-02 14874   0.350E-01    0.756E-01
DAV:   6    -0.760294796927E+03   -0.34054E-02   -0.14459E-02 14876   0.282E-01    0.934E-01
DAV:   7    -0.760292867950E+03    0.19290E-02   -0.11680E-02 14882   0.255E-01    0.763E-01
DAV:   8    -0.760292038844E+03    0.82911E-03   -0.15449E-02 14838   0.242E-01    0.544E-01
DAV:   9    -0.760290613779E+03    0.14251E-02   -0.35255E-03 14814   0.158E-01    0.310E-01
DAV:  10    -0.760290178156E+03    0.43562E-03   -0.11994E-03 14808   0.814E-02    0.167E-01
DAV:  11    -0.760289945339E+03    0.23282E-03   -0.27810E-04 14832   0.378E-02    0.846E-02
DAV:  12    -0.760289992577E+03   -0.47238E-04   -0.11151E-04 14714   0.251E-02    0.782E-02
DAV:  13    -0.760289996247E+03   -0.36699E-05   -0.97725E-05 14370   0.169E-02    0.772E-02
DAV:  14    -0.760289965069E+03    0.31178E-04   -0.63186E-05 14162   0.134E-02    0.528E-02
DAV:  15    -0.760289929457E+03    0.35611E-04   -0.13422E-05 14208   0.837E-03    0.383E-02
DAV:  16    -0.760289867874E+03    0.61583E-04   -0.85718E-06 13280   0.816E-03    0.180E-02
DAV:  17    -0.760289805765E+03    0.62110E-04   -0.67239E-06 12922   0.546E-03    0.180E-02
DAV:  18    -0.760289756919E+03    0.48845E-04   -0.64694E-06 10282   0.508E-03    0.174E-02
DAV:  19    -0.760289698805E+03    0.58114E-04   -0.42305E-06 10068   0.486E-03    0.218E-02
DAV:  20    -0.760289640011E+03    0.58795E-04   -0.51372E-06 11092   0.469E-03    0.176E-02
DAV:  21    -0.760289630849E+03    0.91617E-05   -0.68305E-06  9744   0.464E-03    0.148E-02
DAV:  22    -0.760289653507E+03   -0.22658E-04   -0.30453E-06 10258   0.335E-03    0.150E-02
DAV:  23    -0.760289735632E+03   -0.82125E-04   -0.17851E-06 10416   0.274E-03    0.200E-02
DAV:  24    -0.760289836590E+03   -0.10096E-03   -0.20556E-06 10486   0.287E-03    0.161E-02
DAV:  25    -0.760290001549E+03   -0.16496E-03   -0.29850E-06 11162   0.405E-03    0.566E-03
DAV:  26    -0.760290077002E+03   -0.75453E-04   -0.11182E-06  9624   0.200E-03    0.510E-03
DAV:  27    -0.760290201972E+03   -0.12497E-03   -0.38617E-07  9194   0.129E-03    0.359E-03
DAV:  28    -0.760290435288E+03   -0.23332E-03   -0.61757E-07  9874   0.951E-04    0.357E-03
DAV:  29    -0.760290683124E+03   -0.24784E-03   -0.55957E-07  9952   0.111E-03    0.313E-03
DAV:  30    -0.760290861919E+03   -0.17879E-03   -0.32038E-07  9560   0.823E-04    0.255E-03
DAV:  31    -0.760291059782E+03   -0.19786E-03   -0.38017E-07  9776   0.609E-04    0.213E-03
DAV:  32    -0.760291278367E+03   -0.21859E-03   -0.49371E-07 10016   0.730E-04    0.173E-03
DAV:  33    -0.760291473421E+03   -0.19505E-03   -0.48982E-07  9864   0.767E-04    0.141E-03
DAV:  34    -0.760291569602E+03   -0.96181E-04   -0.16962E-07  9296   0.491E-04    0.142E-03
DAV:  35    -0.760291619788E+03   -0.50186E-04   -0.70679E-08  8944   0.371E-04    0.905E-04
DAV:  36    -0.760291647100E+03   -0.27312E-04   -0.40322E-08  8984   0.318E-04    0.829E-04
DAV:  37    -0.760291667686E+03   -0.20586E-04   -0.21542E-08  8824   0.216E-04    0.125E-03
DAV:  38    -0.760291677888E+03   -0.10202E-04   -0.11755E-08  8728   0.179E-04    0.958E-04
DAV:  39    -0.760291683335E+03   -0.54468E-05   -0.71887E-09  8864   0.164E-04    0.497E-04
DAV:  40    -0.760291686891E+03   -0.35563E-05   -0.46802E-09  8776   0.133E-04    0.512E-04
DAV:  41    -0.760291688785E+03   -0.18938E-05   -0.21020E-09  8792   0.857E-05    0.543E-04
DAV:  42    -0.760291689981E+03   -0.11963E-05   -0.93257E-10  8920   0.551E-05    0.541E-04
DAV:  43    -0.760291690747E+03   -0.76578E-06   -0.60973E-10  8864   0.434E-05
  11 F= -.78830349E+03 E0= -.78822412E+03  d E =-.793046E-01  mag=    13.5555
       N       E                     dE             d eps       ncg     rms          rms(c)
DAV:   1    -0.760239945337E+03    0.51745E-01   -0.11334E+01 15168   0.611E+00    0.771E-01
DAV:   2    -0.760344847883E+03   -0.10490E+00   -0.10034E+00 14920   0.128E+00    0.151E+00
DAV:   3    -0.760444969701E+03   -0.10012E+00   -0.35114E-01 14968   0.895E-01    0.379E+00
DAV:   4    -0.760320300762E+03    0.12467E+00   -0.19095E-01 14800   0.656E-01    0.632E-01
DAV:   5    -0.760329967825E+03   -0.96671E-02   -0.10329E-02 14576   0.217E-01    0.767E-01
DAV:   6    -0.760327572489E+03    0.23953E-02   -0.41559E-03 15478   0.166E-01    0.563E-01
DAV:   7    -0.760326750071E+03    0.82242E-03   -0.34923E-03 14988   0.148E-01    0.344E-01
DAV:   8    -0.760326876083E+03   -0.12601E-03   -0.17858E-03 14984   0.127E-01    0.321E-01
DAV:   9    -0.760326373389E+03    0.50269E-03   -0.11018E-03 14810   0.709E-02    0.261E-01
DAV:  10    -0.760326181204E+03    0.19219E-03   -0.24888E-04 14832   0.386E-02    0.174E-01
DAV:  11    -0.760326115638E+03    0.65565E-04   -0.13259E-04 14564   0.275E-02    0.132E-01
DAV:  12    -0.760326109215E+03    0.64229E-05   -0.40647E-05 15002   0.176E-02    0.552E-02
DAV:  13    -0.760326166991E+03   -0.57776E-04   -0.30095E-05 13996   0.104E-02    0.313E-02
DAV:  14    -0.760326156682E+03    0.10309E-04   -0.21972E-05 14152   0.103E-02    0.401E-02
DAV:  15    -0.760326042239E+03    0.11444E-03   -0.35318E-05 13752   0.945E-03    0.317E-02
DAV:  16    -0.760325784085E+03    0.25815E-03   -0.13946E-05 13936   0.817E-03    0.265E-02
DAV:  17    -0.760325242876E+03    0.54121E-03   -0.84800E-06 13688   0.481E-03    0.206E-02
DAV:  18    -0.760324654908E+03    0.58797E-03   -0.63409E-06 11688   0.600E-03    0.317E-02
DAV:  19    -0.760324158419E+03    0.49649E-03   -0.99957E-06 11584   0.603E-03    0.381E-02
DAV:  20    -0.760323335509E+03    0.82291E-03   -0.12659E-05 13336   0.617E-03    0.335E-02
DAV:  21    -0.760322934451E+03    0.40106E-03   -0.50641E-06 11384   0.474E-03    0.227E-02
DAV:  22    -0.760322844371E+03    0.90081E-04   -0.37099E-06  9680   0.476E-03    0.120E-02
DAV:  23    -0.760322940929E+03   -0.96558E-04   -0.24239E-06  9802   0.369E-03    0.971E-03
DAV:  24    -0.760323267129E+03   -0.32620E-03   -0.27396E-06 10704   0.309E-03    0.984E-03
DAV:  25    -0.760323678092E+03   -0.41096E-03   -0.30840E-06 10908   0.277E-03    0.102E-02
DAV:  26    -0.760324146252E+03   -0.46816E-03   -0.43341E-06 11268   0.240E-03    0.857E-03
DAV:  27    -0.760324564763E+03   -0.41851E-03   -0.33096E-06 11304   0.222E-03    0.669E-03
DAV:  28    -0.760324941309E+03   -0.37655E-03   -0.19375E-06 10748   0.175E-03    0.492E-03
DAV:  29    -0.760325321007E+03   -0.37970E-03   -0.12103E-06 10356   0.146E-03    0.400E-03
DAV:  30    -0.760325837777E+03   -0.51677E-03   -0.16726E-06 10826   0.143E-03    0.293E-03
DAV:  31    -0.760326101152E+03   -0.26338E-03   -0.42347E-07  9744   0.109E-03    0.360E-03
DAV:  32    -0.760326316352E+03   -0.21520E-03   -0.24532E-07  9232   0.887E-04    0.341E-03
DAV:  33    -0.760326673608E+03   -0.35726E-03   -0.28597E-07  9584   0.732E-04    0.163E-03
DAV:  34    -0.760326905884E+03   -0.23228E-03   -0.21189E-07  9552   0.793E-04    0.215E-03
DAV:  35    -0.760327003261E+03   -0.97378E-04   -0.95363E-08  9104   0.565E-04    0.209E-03
DAV:  36    -0.760327038221E+03   -0.34959E-04   -0.41146E-08  8960   0.340E-04    0.130E-03
DAV:  37    -0.760327060444E+03   -0.22224E-04   -0.26082E-08  8944   0.309E-04    0.772E-04
DAV:  38    -0.760327078333E+03   -0.17888E-04   -0.16852E-08  8856   0.225E-04    0.555E-04
DAV:  39    -0.760327085224E+03   -0.68911E-05   -0.80312E-09  8920   0.149E-04    0.498E-04
DAV:  40    -0.760327087945E+03   -0.27211E-05   -0.31102E-09  8880   0.848E-05    0.476E-04
DAV:  41    -0.760327089726E+03   -0.17814E-05   -0.17737E-09  8888   0.561E-05    0.459E-04
DAV:  42    -0.760327092197E+03   -0.24706E-05   -0.25294E-09  8820   0.553E-05    0.442E-04
DAV:  43    -0.760327093633E+03   -0.14359E-05   -0.18446E-09  8864   0.509E-05    0.440E-04
DAV:  44    -0.760327094603E+03   -0.97044E-06   -0.14063E-09  8848   0.383E-05
  12 F= -.78833168E+03 E0= -.78825181E+03  d E =-.281913E-01  mag=    13.3157
       N       E                     dE             d eps       ncg     rms          rms(c)
DAV:   1    -0.760266063819E+03    0.61030E-01   -0.10133E+01 15080   0.578E+00    0.733E-01
DAV:   2    -0.760367368676E+03   -0.10130E+00   -0.90929E-01 14920   0.123E+00    0.172E+00
DAV:   3    -0.760426419065E+03   -0.59050E-01   -0.31227E-01 14944   0.829E-01    0.320E+00
DAV:   4    -0.760339955192E+03    0.86464E-01   -0.12091E-01 14730   0.546E-01    0.643E-01
DAV:   5    -0.760346301253E+03   -0.63461E-02   -0.69739E-03 14618   0.194E-01    0.697E-01
DAV:   6    -0.760343471547E+03    0.28297E-02   -0.34597E-03 15034   0.152E-01    0.389E-01
DAV:   7    -0.760344228325E+03   -0.75678E-03   -0.29859E-03 15004   0.121E-01    0.417E-01
DAV:   8    -0.760344142692E+03    0.85633E-04   -0.20234E-03 14898   0.132E-01    0.363E-01
DAV:   9    -0.760343406096E+03    0.73660E-03   -0.16008E-03 14676   0.821E-02    0.268E-01
DAV:  10    -0.760343251587E+03    0.15451E-03   -0.32045E-04 14768   0.411E-02    0.190E-01
DAV:  11    -0.760343126266E+03    0.12532E-03   -0.11289E-04 14806   0.258E-02    0.122E-01
DAV:  12    -0.760343129364E+03   -0.30978E-05   -0.41476E-05 14930   0.181E-02    0.451E-02
DAV:  13    -0.760343191984E+03   -0.62621E-04   -0.31911E-05 14082   0.941E-03    0.338E-02
DAV:  14    -0.760343185147E+03    0.68371E-05   -0.11324E-05 13616   0.918E-03    0.279E-02
DAV:  15    -0.760343042223E+03    0.14292E-03   -0.18366E-05 13680   0.787E-03    0.340E-02
DAV:  16    -0.760342863545E+03    0.17868E-03   -0.23686E-05 13128   0.788E-03    0.257E-02
DAV:  17    -0.760342327301E+03    0.53624E-03   -0.88516E-06 13304   0.458E-03    0.197E-02
DAV:  18    -0.760341864538E+03    0.46276E-03   -0.37508E-06 11144   0.412E-03    0.284E-02
DAV:  19    -0.760341277607E+03    0.58693E-03   -0.63667E-06 11904   0.561E-03    0.368E-02
DAV:  20    -0.760340663079E+03    0.61453E-03   -0.12694E-05 11666   0.638E-03    0.325E-02
DAV:  21    -0.760340203929E+03    0.45915E-03   -0.69990E-06 11112   0.580E-03    0.177E-02
DAV:  22    -0.760340136330E+03    0.67598E-04   -0.24728E-06  9536   0.400E-03    0.104E-02
DAV:  23    -0.760340268693E+03   -0.13236E-03   -0.17025E-06  9620   0.320E-03    0.924E-03
DAV:  24    -0.760340621699E+03   -0.35301E-03   -0.28359E-06 10892   0.268E-03    0.763E-03
DAV:  25    -0.760340923562E+03   -0.30186E-03   -0.21498E-06 10656   0.255E-03    0.854E-03
DAV:  26    -0.760341357227E+03   -0.43366E-03   -0.38715E-06 11176   0.241E-03    0.103E-02
DAV:  27    -0.760341812706E+03   -0.45548E-03   -0.35906E-06 11472   0.237E-03    0.605E-03
DAV:  28    -0.760342092474E+03   -0.27977E-03   -0.14546E-06 10560   0.194E-03    0.517E-03
DAV:  29    -0.760342497089E+03   -0.40461E-03   -0.14966E-06 10716   0.150E-03    0.443E-03
DAV:  30    -0.760342821772E+03   -0.32468E-03   -0.86582E-07 10072   0.141E-03    0.397E-03
DAV:  31    -0.760343026824E+03   -0.20505E-03   -0.33856E-07  9538   0.975E-04    0.305E-03
DAV:  32    -0.760343266558E+03   -0.23973E-03   -0.23373E-07  9138   0.650E-04    0.281E-03
DAV:  33    -0.760343583187E+03   -0.31663E-03   -0.29455E-07  9560   0.682E-04    0.212E-03
DAV:  34    -0.760343760282E+03   -0.17709E-03   -0.16468E-07  9376   0.625E-04    0.150E-03
DAV:  35    -0.760343906059E+03   -0.14578E-03   -0.12769E-07  9480   0.506E-04    0.188E-03
DAV:  36    -0.760343948828E+03   -0.42769E-04   -0.43360E-08  8944   0.358E-04    0.132E-03
DAV:  37    -0.760343973487E+03   -0.24659E-04   -0.28146E-08  8920   0.290E-04    0.752E-04
DAV:  38    -0.760343995067E+03   -0.21580E-04   -0.22003E-08  8872   0.223E-04    0.580E-04
DAV:  39    -0.760344000850E+03   -0.57828E-05   -0.80394E-09  8952   0.161E-04    0.525E-04
DAV:  40    -0.760344004447E+03   -0.35965E-05   -0.41312E-09  8850   0.927E-05    0.474E-04
DAV:  41    -0.760344007160E+03   -0.27134E-05   -0.29659E-09  8832   0.708E-05    0.466E-04
DAV:  42    -0.760344009377E+03   -0.22170E-05   -0.21649E-09  8804   0.590E-05    0.461E-04
DAV:  43    -0.760344010773E+03   -0.13958E-05   -0.16760E-09  8840   0.479E-05    0.457E-04
DAV:  44    -0.760344011693E+03   -0.91968E-06   -0.12573E-09  8834   0.383E-05
  13 F= -.78834178E+03 E0= -.78826169E+03  d E =-.382871E-01  mag=    13.0915
       N       E                     dE             d eps       ncg     rms          rms(c)
DAV:   1    -0.760315252469E+03    0.28758E-01   -0.13148E+01 14248   0.533E+00    0.763E-01
DAV:   2    -0.760414365658E+03   -0.99113E-01   -0.73644E-01 14856   0.114E+00    0.229E+00
DAV:   3    -0.760444267639E+03   -0.29902E-01   -0.41650E-01 14888   0.869E-01    0.296E+00
DAV:   4    -0.760372912782E+03    0.71355E-01   -0.10219E-01 14634   0.558E-01    0.768E-01
DAV:   5    -0.760375998625E+03   -0.30858E-02   -0.13820E-02 14658   0.226E-01    0.755E-01
DAV:   6    -0.760374984460E+03    0.10142E-02   -0.29542E-03 15958   0.127E-01    0.591E-01
DAV:   7    -0.760373732579E+03    0.12519E-02   -0.40092E-03 14976   0.147E-01    0.372E-01
DAV:   8    -0.760374112166E+03   -0.37959E-03   -0.33436E-03 14960   0.141E-01    0.360E-01
DAV:   9    -0.760373006687E+03    0.11055E-02   -0.14870E-03 14782   0.794E-02    0.268E-01
DAV:  10    -0.760372675492E+03    0.33120E-03   -0.29767E-04 14938   0.401E-02    0.184E-01
DAV:  11    -0.760372377976E+03    0.29752E-03   -0.13294E-04 15018   0.247E-02    0.118E-01
DAV:  12    -0.760372033134E+03    0.34484E-03   -0.46747E-05 14992   0.170E-02    0.605E-02
DAV:  13    -0.760371546725E+03    0.48641E-03   -0.25616E-05 14244   0.123E-02    0.448E-02
DAV:  14    -0.760370629055E+03    0.91767E-03   -0.23241E-05 14672   0.978E-03    0.438E-02
DAV:  15    -0.760369870195E+03    0.75886E-03   -0.58945E-05 14308   0.132E-02    0.569E-02
DAV:  16    -0.760368511059E+03    0.13591E-02   -0.48107E-05 14094   0.123E-02    0.369E-02
DAV:  17    -0.760367247121E+03    0.12639E-02   -0.24234E-05 14418   0.131E-02    0.547E-02
DAV:  18    -0.760365710039E+03    0.15371E-02   -0.14194E-05 14320   0.798E-03    0.509E-02
DAV:  19    -0.760364851469E+03    0.85857E-03   -0.29473E-05 13920   0.102E-02    0.454E-02
DAV:  20    -0.760364211548E+03    0.63992E-03   -0.26765E-05 14026   0.923E-03    0.263E-02
DAV:  21    -0.760364280144E+03   -0.68596E-04   -0.87001E-06 13512   0.616E-03    0.188E-02
DAV:  22    -0.760364735717E+03   -0.45557E-03   -0.40429E-06 11696   0.386E-03    0.146E-02
DAV:  23    -0.760365348315E+03   -0.61260E-03   -0.33560E-06 10870   0.389E-03    0.143E-02
DAV:  24    -0.760366878852E+03   -0.15305E-02   -0.12528E-05 12640   0.472E-03    0.128E-02
DAV:  25    -0.760368021129E+03   -0.11423E-02   -0.83514E-06 12298   0.423E-03    0.100E-02
DAV:  26    -0.760368977509E+03   -0.95638E-03   -0.63857E-06 11714   0.363E-03    0.124E-02
DAV:  27    -0.760370019559E+03   -0.10421E-02   -0.71802E-06 12040   0.306E-03    0.109E-02
DAV:  28    -0.760370970774E+03   -0.95122E-03   -0.47650E-06 11524   0.317E-03    0.656E-03
DAV:  29    -0.760371628284E+03   -0.65751E-03   -0.18103E-06 10816   0.235E-03    0.923E-03
DAV:  30    -0.760372137618E+03   -0.50933E-03   -0.68488E-07  9792   0.159E-03    0.894E-03
DAV:  31    -0.760372633710E+03   -0.49609E-03   -0.52106E-07  9376   0.160E-03    0.507E-03
DAV:  32    -0.760372976607E+03   -0.34290E-03   -0.47104E-07  9312   0.141E-03    0.384E-03
DAV:  33    -0.760373452261E+03   -0.47565E-03   -0.54825E-07 10040   0.970E-04    0.278E-03
DAV:  34    -0.760373662826E+03   -0.21056E-03   -0.19786E-07  9344   0.720E-04    0.268E-03
DAV:  35    -0.760373731902E+03   -0.69076E-04   -0.76559E-08  8904   0.492E-04    0.203E-03
DAV:  36    -0.760373786511E+03   -0.54609E-04   -0.70370E-08  8976   0.385E-04    0.101E-03
DAV:  37    -0.760373815557E+03   -0.29046E-04   -0.42470E-08  8896   0.345E-04    0.765E-04
DAV:  38    -0.760373833064E+03   -0.17507E-04   -0.25280E-08  8872   0.229E-04    0.622E-04
DAV:  39    -0.760373840732E+03   -0.76678E-05   -0.11790E-08  8872   0.152E-04    0.543E-04
DAV:  40    -0.760373845863E+03   -0.51318E-05   -0.68399E-09  8834   0.106E-04    0.524E-04
DAV:  41    -0.760373849480E+03   -0.36168E-05   -0.42648E-09  8824   0.854E-05    0.503E-04
DAV:  42    -0.760373853814E+03   -0.43341E-05   -0.65593E-09  8776   0.733E-05    0.498E-04
DAV:  43    -0.760373855559E+03   -0.17446E-05   -0.33178E-09  8888   0.557E-05    0.495E-04
DAV:  44    -0.760373856425E+03   -0.86613E-06   -0.18628E-09  8888   0.432E-05
  14 F= -.78836458E+03 E0= -.78828470E+03  d E =-.228018E-01  mag=    12.6855
       N       E                     dE             d eps       ncg     rms          rms(c)
DAV:   1    -0.760341913697E+03    0.31942E-01   -0.10462E+01 14228   0.475E+00    0.676E-01
DAV:   2    -0.760418632237E+03   -0.76719E-01   -0.58704E-01 14848   0.101E+00    0.198E+00
DAV:   3    -0.760443915792E+03   -0.25284E-01   -0.33049E-01 14800   0.764E-01    0.262E+00
DAV:   4    -0.760387664444E+03    0.56251E-01   -0.10094E-01 14496   0.482E-01    0.675E-01
DAV:   5    -0.760389987717E+03   -0.23233E-02   -0.94649E-03 14820   0.189E-01    0.613E-01
DAV:   6    -0.760389046012E+03    0.94170E-03   -0.34941E-03 14958   0.125E-01    0.413E-01
DAV:   7    -0.760388721921E+03    0.32409E-03   -0.46342E-03 14948   0.140E-01    0.372E-01
DAV:   8    -0.760388353850E+03    0.36807E-03   -0.15766E-03 15252   0.902E-02    0.313E-01
DAV:   9    -0.760387896245E+03    0.45761E-03   -0.91246E-04 14930   0.699E-02    0.236E-01
DAV:  10    -0.760387626881E+03    0.26936E-03   -0.25240E-04 14892   0.362E-02    0.158E-01
DAV:  11    -0.760387387975E+03    0.23891E-03   -0.10053E-04 14970   0.229E-02    0.929E-02
DAV:  12    -0.760387144319E+03    0.24366E-03   -0.45298E-05 15088   0.153E-02    0.393E-02
DAV:  13    -0.760386844596E+03    0.29972E-03   -0.19675E-05 14284   0.865E-03    0.327E-02
DAV:  14    -0.760386390105E+03    0.45449E-03   -0.89666E-06 14096   0.632E-03    0.318E-02
DAV:  15    -0.760386004968E+03    0.38514E-03   -0.21815E-05 13020   0.928E-03    0.379E-02
DAV:  16    -0.760385452867E+03    0.55210E-03   -0.30451E-05 13148   0.904E-03    0.347E-02
DAV:  17    -0.760384793002E+03    0.65986E-03   -0.12072E-05 13618   0.699E-03    0.285E-02
DAV:  18    -0.760384151775E+03    0.64123E-03   -0.16664E-05 12222   0.772E-03    0.432E-02
DAV:  19    -0.760383628795E+03    0.52298E-03   -0.18907E-05 11624   0.732E-03    0.440E-02
DAV:  20    -0.760382805023E+03    0.82377E-03   -0.15447E-05 13568   0.840E-03    0.181E-02
DAV:  21    -0.760382691317E+03    0.11371E-03   -0.56335E-06 13610   0.481E-03    0.124E-02
DAV:  22    -0.760382888868E+03   -0.19755E-03   -0.18188E-06 10032   0.275E-03    0.107E-02
DAV:  23    -0.760383202373E+03   -0.31350E-03   -0.13413E-06  9844   0.233E-03    0.989E-03
DAV:  24    -0.760384178738E+03   -0.97637E-03   -0.68465E-06 12156   0.308E-03    0.766E-03
DAV:  25    -0.760384736969E+03   -0.55823E-03   -0.26742E-06 11240   0.246E-03    0.752E-03
DAV:  26    -0.760385298127E+03   -0.56116E-03   -0.25309E-06 10786   0.222E-03    0.906E-03
DAV:  27    -0.760386104303E+03   -0.80618E-03   -0.49083E-06 11636   0.247E-03    0.791E-03
DAV:  28    -0.760386845130E+03   -0.74083E-03   -0.41512E-06 11400   0.259E-03    0.476E-03
DAV:  29    -0.760387281029E+03   -0.43590E-03   -0.11266E-06 10536   0.163E-03    0.653E-03
DAV:  30    -0.760387579853E+03   -0.29882E-03   -0.43200E-07  9364   0.117E-03    0.546E-03
DAV:  31    -0.760387853728E+03   -0.27387E-03   -0.32335E-07  9352   0.110E-03    0.268E-03
DAV:  32    -0.760388001396E+03   -0.14767E-03   -0.17593E-07  9008   0.852E-04    0.217E-03
DAV:  33    -0.760388253253E+03   -0.25186E-03   -0.19544E-07  9424   0.594E-04    0.129E-03
DAV:  34    -0.760388402344E+03   -0.14909E-03   -0.95096E-08  9120   0.554E-04    0.131E-03
DAV:  35    -0.760388460542E+03   -0.58197E-04   -0.39640E-08  9000   0.380E-04    0.116E-03
DAV:  36    -0.760388497659E+03   -0.37117E-04   -0.25978E-08  8904   0.264E-04    0.955E-04
DAV:  37    -0.760388513975E+03   -0.16317E-04   -0.17162E-08  8928   0.266E-04    0.680E-04
DAV:  38    -0.760388523117E+03   -0.91416E-05   -0.11136E-08  8888   0.173E-04    0.583E-04
DAV:  39    -0.760388526483E+03   -0.33663E-05   -0.47404E-09  8944   0.102E-04    0.551E-04
DAV:  40    -0.760388528505E+03   -0.20217E-05   -0.27024E-09  8850   0.763E-05    0.533E-04
DAV:  41    -0.760388529848E+03   -0.13434E-05   -0.13937E-09  8872   0.531E-05    0.526E-04
DAV:  42    -0.760388531171E+03   -0.13222E-05   -0.13687E-09  8722   0.451E-05    0.525E-04
DAV:  43    -0.760388531768E+03   -0.59791E-06   -0.57297E-10  8896   0.362E-05
  15 F= -.78837297E+03 E0= -.78829371E+03  d E =-.311870E-01  mag=    12.3968
       N       E                     dE             d eps       ncg     rms          rms(c)
DAV:   1    -0.760343847899E+03    0.44683E-01   -0.16833E+01 14324   0.597E+00    0.859E-01
DAV:   2    -0.760433797141E+03   -0.89949E-01   -0.86803E-01 14816   0.118E+00    0.145E+00
DAV:   3    -0.760564088056E+03   -0.13029E+00   -0.47050E-01 15000   0.934E-01    0.404E+00
DAV:   4    -0.760421123300E+03    0.14296E+00   -0.35316E-01 15066   0.855E-01    0.123E+00
DAV:   5    -0.760419607148E+03    0.15162E-02   -0.33145E-02 14664   0.312E-01    0.805E-01
DAV:   6    -0.760418656962E+03    0.95019E-03   -0.69522E-03 14780   0.165E-01    0.517E-01
DAV:   7    -0.760419538842E+03   -0.88188E-03   -0.68117E-03 14762   0.155E-01    0.456E-01
DAV:   8    -0.760419140090E+03    0.39875E-03   -0.10940E-02 14930   0.161E-01    0.373E-01
DAV:   9    -0.760418515343E+03    0.62475E-03   -0.16306E-03 14802   0.737E-02    0.262E-01
DAV:  10    -0.760418224140E+03    0.29120E-03   -0.35395E-04 14936   0.449E-02    0.146E-01
DAV:  11    -0.760418275973E+03   -0.51833E-04   -0.19527E-04 15016   0.247E-02    0.110E-01
DAV:  12    -0.760418193249E+03    0.82724E-04   -0.96275E-05 15096   0.221E-02    0.334E-02
DAV:  13    -0.760418203030E+03   -0.97812E-05   -0.36257E-05 14616   0.125E-02    0.296E-02
DAV:  14    -0.760418188812E+03    0.14218E-04   -0.10498E-05 13912   0.713E-03    0.251E-02
DAV:  15    -0.760418174759E+03    0.14053E-04   -0.75443E-06 11906   0.535E-03    0.273E-02
DAV:  16    -0.760418160907E+03    0.13852E-04   -0.11108E-05 10824   0.513E-03    0.182E-02
DAV:  17    -0.760418140520E+03    0.20387E-04   -0.65334E-06 10312   0.544E-03    0.141E-02
DAV:  18    -0.760418131194E+03    0.93267E-05   -0.17849E-06 10136   0.255E-03    0.131E-02
DAV:  19    -0.760418121105E+03    0.10089E-04   -0.70117E-07  8880   0.155E-03    0.136E-02
DAV:  20    -0.760418111963E+03    0.91419E-05   -0.93939E-07  8896   0.163E-03    0.136E-02
DAV:  21    -0.760418023387E+03    0.88576E-04   -0.17078E-06 10018   0.199E-03    0.914E-03
DAV:  22    -0.760417954034E+03    0.69353E-04   -0.86667E-07  9624   0.183E-03    0.518E-03
DAV:  23    -0.760417935332E+03    0.18703E-04   -0.51028E-07  9168   0.143E-03    0.514E-03
DAV:  24    -0.760417927225E+03    0.81062E-05   -0.78633E-07  9504   0.142E-03    0.368E-03
DAV:  25    -0.760417924003E+03    0.32221E-05   -0.33316E-07  9096   0.113E-03    0.380E-03
DAV:  26    -0.760417926815E+03   -0.28114E-05   -0.20811E-07  9200   0.857E-04    0.400E-03
DAV:  27    -0.760417937925E+03   -0.11110E-04   -0.14499E-07  8784   0.622E-04    0.318E-03
DAV:  28    -0.760417965511E+03   -0.27587E-04   -0.16954E-07  9176   0.589E-04    0.222E-03
DAV:  29    -0.760417999791E+03   -0.34280E-04   -0.12577E-07  9036   0.561E-04    0.216E-03
DAV:  30    -0.760418095579E+03   -0.95787E-04   -0.59569E-07 10018   0.666E-04    0.171E-03
DAV:  31    -0.760418158092E+03   -0.62514E-04   -0.35180E-07  9840   0.599E-04    0.177E-03
DAV:  32    -0.760418188783E+03   -0.30691E-04   -0.10157E-07  9096   0.481E-04    0.149E-03
DAV:  33    -0.760418240464E+03   -0.51681E-04   -0.14341E-07  9424   0.399E-04    0.107E-03
DAV:  34    -0.760418296744E+03   -0.56280E-04   -0.12024E-07  9320   0.430E-04    0.109E-03
DAV:  35    -0.760418354300E+03   -0.57556E-04   -0.11818E-07  9376   0.361E-04    0.115E-03
DAV:  36    -0.760418382465E+03   -0.28165E-04   -0.40627E-08  8944   0.239E-04    0.942E-04
DAV:  37    -0.760418409654E+03   -0.27189E-04   -0.38733E-08  8976   0.215E-04    0.716E-04
DAV:  38    -0.760418431417E+03   -0.21763E-04   -0.30887E-08  8888   0.188E-04    0.622E-04
DAV:  39    -0.760418445513E+03   -0.14096E-04   -0.27004E-08  8936   0.150E-04    0.589E-04
DAV:  40    -0.760418449274E+03   -0.37611E-05   -0.10577E-08  8912   0.114E-04    0.575E-04
DAV:  41    -0.760418450434E+03   -0.11595E-05   -0.53905E-09  8780   0.820E-05    0.561E-04
DAV:  42    -0.760418450869E+03   -0.43516E-06   -0.27489E-09  8842   0.568E-05
  16 F= -.78839608E+03 E0= -.78831791E+03  d E =-.231195E-01  mag=    12.3149
       N       E                     dE             d eps       ncg     rms          rms(c)
DAV:   1    -0.760288393694E+03    0.13006E+00   -0.34335E+01 14368   0.853E+00    0.122E+00
DAV:   2    -0.760451697952E+03   -0.16330E+00   -0.17434E+00 14800   0.166E+00    0.126E+00
DAV:   3    -0.760785759176E+03   -0.33406E+00   -0.87032E-01 14960   0.130E+00    0.607E+00
DAV:   4    -0.760441630090E+03    0.34413E+00   -0.10375E+00 15176   0.128E+00    0.158E+00
DAV:   5    -0.760446220617E+03   -0.45905E-02   -0.88809E-02 14644   0.441E-01    0.116E+00
DAV:   6    -0.760441502143E+03    0.47185E-02   -0.13678E-02 14834   0.240E-01    0.644E-01
DAV:   7    -0.760442704927E+03   -0.12028E-02   -0.13836E-02 14750   0.200E-01    0.521E-01
DAV:   8    -0.760442774235E+03   -0.69309E-04   -0.15423E-02 14932   0.203E-01    0.464E-01
DAV:   9    -0.760441369485E+03    0.14048E-02   -0.24535E-03 14916   0.102E-01    0.274E-01
DAV:  10    -0.760441149149E+03    0.22034E-03   -0.59406E-04 14912   0.552E-02    0.165E-01
DAV:  11    -0.760441246048E+03   -0.96899E-04   -0.24588E-04 15032   0.332E-02    0.158E-01
DAV:  12    -0.760441020142E+03    0.22591E-03   -0.14450E-04 15088   0.324E-02    0.443E-02
DAV:  13    -0.760441060153E+03   -0.40011E-04   -0.54807E-05 14600   0.142E-02    0.363E-02
DAV:  14    -0.760441062533E+03   -0.23795E-05   -0.24244E-05 14552   0.960E-03    0.435E-02
DAV:  15    -0.760441058167E+03    0.43653E-05   -0.32736E-05 13648   0.835E-03    0.429E-02
DAV:  16    -0.760441048468E+03    0.96995E-05   -0.10690E-05 12762   0.635E-03    0.286E-02
DAV:  17    -0.760441038216E+03    0.10251E-04   -0.10451E-05 12318   0.690E-03    0.116E-02
DAV:  18    -0.760441030204E+03    0.80129E-05   -0.32907E-06 12362   0.325E-03    0.948E-03
DAV:  19    -0.760441018298E+03    0.11906E-04   -0.52039E-07  8756   0.131E-03    0.786E-03
DAV:  20    -0.760441010792E+03    0.75055E-05   -0.47598E-07  8806   0.135E-03    0.888E-03
DAV:  21    -0.760441001966E+03    0.88264E-05   -0.61274E-07  8680   0.137E-03    0.714E-03
DAV:  22    -0.760441001362E+03    0.60350E-06   -0.44104E-07  8708   0.141E-03
  17 F= -.78840888E+03 E0= -.78833203E+03  d E =-.359175E-01  mag=    12.2786
       N       E                     dE             d eps       ncg     rms          rms(c)
DAV:   1    -0.760422919085E+03    0.18083E-01   -0.13005E+01 14364   0.479E+00    0.724E-01
DAV:   2    -0.760473121326E+03   -0.50202E-01   -0.49130E-01 14922   0.888E-01    0.102E+00
DAV:   3    -0.760581450683E+03   -0.10833E+00   -0.34576E-01 14888   0.827E-01    0.356E+00
DAV:   4    -0.760467183765E+03    0.11427E+00   -0.18068E-01 14840   0.652E-01    0.121E+00
DAV:   5    -0.760464969436E+03    0.22143E-02   -0.16273E-02 14674   0.235E-01    0.513E-01
DAV:   6    -0.760466174728E+03   -0.12053E-02   -0.38366E-03 14756   0.130E-01    0.403E-01
DAV:   7    -0.760466130719E+03    0.44009E-04   -0.56867E-03 14930   0.140E-01    0.289E-01
DAV:   8    -0.760466058595E+03    0.72124E-04   -0.13827E-03 14888   0.757E-02    0.238E-01
DAV:   9    -0.760465995703E+03    0.62892E-04   -0.39608E-04 14782   0.441E-02    0.179E-01
DAV:  10    -0.760465923846E+03    0.71857E-04   -0.14767E-04 14818   0.253E-02    0.134E-01
DAV:  11    -0.760465855711E+03    0.68135E-04   -0.12496E-04 14914   0.242E-02    0.628E-02
DAV:  12    -0.760465871684E+03   -0.15973E-04   -0.10012E-04 14754   0.170E-02    0.403E-02
DAV:  13    -0.760465842967E+03    0.28717E-04   -0.34705E-05 14520   0.109E-02    0.206E-02
DAV:  14    -0.760465823402E+03    0.19565E-04   -0.17712E-05 13722   0.670E-03    0.214E-02
DAV:  15    -0.760465784557E+03    0.38845E-04   -0.78676E-06 11000   0.526E-03    0.138E-02
DAV:  16    -0.760465721315E+03    0.63242E-04   -0.34259E-06 10312   0.393E-03    0.113E-02
DAV:  17    -0.760465673205E+03    0.48109E-04   -0.18470E-06  9226   0.322E-03    0.911E-03
DAV:  18    -0.760465603369E+03    0.69837E-04   -0.12926E-06  9328   0.238E-03    0.868E-03
DAV:  19    -0.760465561483E+03    0.41886E-04   -0.36596E-07  9042   0.114E-03    0.104E-02
DAV:  20    -0.760465527867E+03    0.33616E-04   -0.25486E-07  8714   0.117E-03    0.111E-02
DAV:  21    -0.760465442890E+03    0.84977E-04   -0.73190E-07  9266   0.167E-03    0.756E-03
DAV:  22    -0.760465339624E+03    0.10327E-03   -0.14005E-06  9334   0.279E-03    0.787E-03
DAV:  23    -0.760465331652E+03    0.79726E-05   -0.72680E-07  9104   0.205E-03    0.429E-03
DAV:  24    -0.760465373506E+03   -0.41854E-04   -0.51464E-07  9138   0.136E-03    0.307E-03
DAV:  25    -0.760465414425E+03   -0.40919E-04   -0.27310E-07  9158   0.986E-04    0.269E-03
DAV:  26    -0.760465470069E+03   -0.55645E-04   -0.24679E-07  9170   0.794E-04    0.216E-03
DAV:  27    -0.760465537067E+03   -0.66998E-04   -0.20379E-07  9104   0.645E-04    0.186E-03
DAV:  28    -0.760465599506E+03   -0.62439E-04   -0.11061E-07  8952   0.522E-04    0.155E-03
DAV:  29    -0.760465686701E+03   -0.87195E-04   -0.14912E-07  9272   0.495E-04    0.163E-03
DAV:  30    -0.760465857095E+03   -0.17039E-03   -0.48148E-07  9896   0.549E-04    0.151E-03
DAV:  31    -0.760465961618E+03   -0.10452E-03   -0.21215E-07  9560   0.487E-04    0.144E-03
DAV:  32    -0.760466035055E+03   -0.73436E-04   -0.12714E-07  9208   0.373E-04    0.947E-04
DAV:  33    -0.760466074283E+03   -0.39229E-04   -0.48034E-08  8928   0.227E-04    0.756E-04
DAV:  34    -0.760466103336E+03   -0.29053E-04   -0.32338E-08  8784   0.208E-04    0.802E-04
DAV:  35    -0.760466113369E+03   -0.10033E-04   -0.11723E-08  8744   0.158E-04    0.840E-04
DAV:  36    -0.760466121643E+03   -0.82741E-05   -0.62858E-09  8832   0.103E-04    0.704E-04
DAV:  37    -0.760466125408E+03   -0.37651E-05   -0.26403E-09  8784   0.847E-05    0.670E-04
DAV:  38    -0.760466127855E+03   -0.24464E-05   -0.14186E-09  8928   0.655E-05    0.671E-04
DAV:  39    -0.760466129458E+03   -0.16030E-05   -0.78898E-10  8680   0.476E-05    0.660E-04
DAV:  40    -0.760466130459E+03   -0.10014E-05   -0.36076E-10  8896   0.339E-05    0.657E-04
DAV:  41    -0.760466130890E+03   -0.43097E-06   -0.63019E-11  8936   0.271E-05
  18 F= -.78842738E+03 E0= -.78835086E+03  d E =-.185007E-01  mag=    12.1978
       N       E                     dE             d eps       ncg     rms          rms(c)
DAV:   1    -0.760118422532E+03    0.34771E+00   -0.11676E+02 14368   0.144E+01    0.223E+00
DAV:   2    -0.760535788209E+03   -0.41737E+00   -0.45119E+00 14912   0.265E+00    0.181E+00
DAV:   3    -0.761739945999E+03   -0.12042E+01   -0.23305E+00 14920   0.249E+00    0.118E+01
DAV:   4    -0.760499874537E+03    0.12401E+01   -0.31145E+00 15218   0.222E+00    0.284E+00
DAV:   5    -0.760511671717E+03   -0.11797E-01   -0.15283E-01 14762   0.696E-01    0.147E+00
DAV:   6    -0.760511944178E+03   -0.27246E-03   -0.34284E-02 14776   0.337E-01    0.844E-01
DAV:   7    -0.760513775550E+03   -0.18314E-02   -0.23446E-02 14898   0.306E-01    0.761E-01
DAV:   8    -0.760513555335E+03    0.22021E-03   -0.14183E-02 15524   0.232E-01    0.593E-01
DAV:   9    -0.760512007373E+03    0.15480E-02   -0.17534E-02 15160   0.241E-01    0.597E-01
DAV:  10    -0.760511853062E+03    0.15431E-03   -0.24859E-03 14888   0.903E-02    0.509E-01
DAV:  11    -0.760511948945E+03   -0.95883E-04   -0.53646E-04 15064   0.530E-02    0.428E-01
DAV:  12    -0.760512249539E+03   -0.30059E-03   -0.64418E-04 14932   0.546E-02    0.308E-01
DAV:  13    -0.760511900630E+03    0.34891E-03   -0.59903E-04 15072   0.467E-02    0.174E-01
DAV:  14    -0.760511732514E+03    0.16812E-03   -0.53277E-04 15032   0.388E-02    0.126E-01
DAV:  15    -0.760511500013E+03    0.23250E-03   -0.26835E-04 15000   0.307E-02    0.550E-02
DAV:  16    -0.760511412022E+03    0.87991E-04   -0.11062E-04 15016   0.187E-02    0.511E-02
DAV:  17    -0.760511381860E+03    0.30162E-04   -0.10400E-04 14776   0.157E-02    0.439E-02
DAV:  18    -0.760511379080E+03    0.27800E-05   -0.45404E-05 14512   0.122E-02    0.304E-02
DAV:  19    -0.760511430444E+03   -0.51364E-04   -0.20790E-05 14280   0.864E-03    0.174E-02
DAV:  20    -0.760511497365E+03   -0.66921E-04   -0.72309E-06 13936   0.501E-03    0.232E-02
DAV:  21    -0.760511531999E+03   -0.34634E-04   -0.20491E-06 10400   0.250E-03    0.231E-02
DAV:  22    -0.760511556332E+03   -0.24333E-04   -0.12166E-06  9752   0.227E-03    0.193E-02
DAV:  23    -0.760511595784E+03   -0.39452E-04   -0.22834E-06 10300   0.295E-03    0.128E-02
DAV:  24    -0.760511682619E+03   -0.86835E-04   -0.43111E-06 11368   0.290E-03    0.113E-02
DAV:  25    -0.760511737613E+03   -0.54993E-04   -0.20117E-06 10196   0.243E-03    0.104E-02
DAV:  26    -0.760511851348E+03   -0.11373E-03   -0.17249E-06 10340   0.175E-03    0.862E-03
DAV:  27    -0.760511971791E+03   -0.12044E-03   -0.83726E-07  9892   0.150E-03    0.700E-03
DAV:  28    -0.760512094207E+03   -0.12242E-03   -0.50058E-07  9288   0.141E-03    0.727E-03
DAV:  29    -0.760512180212E+03   -0.86005E-04   -0.26113E-07  8768   0.868E-04    0.670E-03
DAV:  30    -0.760512288311E+03   -0.10810E-03   -0.25243E-07  8920   0.862E-04    0.484E-03
DAV:  31    -0.760512467034E+03   -0.17872E-03   -0.50081E-07  9404   0.107E-03    0.312E-03
DAV:  32    -0.760512640983E+03   -0.17395E-03   -0.51573E-07  9608   0.103E-03    0.229E-03
DAV:  33    -0.760512898360E+03   -0.25738E-03   -0.10302E-06 10264   0.998E-04    0.169E-03
DAV:  34    -0.760513004023E+03   -0.10566E-03   -0.33835E-07  9664   0.653E-04    0.142E-03
DAV:  35    -0.760513045930E+03   -0.41907E-04   -0.10492E-07  9112   0.499E-04    0.117E-03
DAV:  36    -0.760513085805E+03   -0.39875E-04   -0.79016E-08  9136   0.362E-04    0.120E-03
DAV:  37    -0.760513136783E+03   -0.50978E-04   -0.10898E-07  9168   0.370E-04    0.114E-03
DAV:  38    -0.760513183515E+03   -0.46732E-04   -0.11072E-07  9328   0.332E-04    0.979E-04
DAV:  39    -0.760513210983E+03   -0.27467E-04   -0.52638E-08  8920   0.259E-04    0.894E-04
[...]
DAV:  22    -0.760718779289E+03    0.12150E-03   -0.16726E-06  9640   0.256E-03    0.715E-03
DAV:  23    -0.760718776682E+03    0.26070E-05   -0.74007E-07  9000   0.186E-03    0.624E-03
DAV:  24    -0.760718920485E+03   -0.14380E-03   -0.11311E-06  9740   0.157E-03    0.480E-03
DAV:  25    -0.760719041422E+03   -0.12094E-03   -0.10752E-06  9772   0.170E-03    0.549E-03
DAV:  26    -0.760719179907E+03   -0.13849E-03   -0.11214E-06 10164   0.138E-03    0.633E-03
DAV:  27    -0.760719303039E+03   -0.12313E-03   -0.62325E-07  9976   0.995E-04    0.478E-03
DAV:  28    -0.760719520472E+03   -0.21743E-03   -0.97060E-07 10280   0.121E-03    0.324E-03
DAV:  29    -0.760719782179E+03   -0.26171E-03   -0.11609E-06 10664   0.121E-03    0.315E-03
DAV:  30    -0.760719944782E+03   -0.16260E-03   -0.45600E-07  9786   0.735E-04    0.302E-03
DAV:  31    -0.760720050789E+03   -0.10601E-03   -0.14846E-07  9104   0.541E-04    0.178E-03
DAV:  32    -0.760720153390E+03   -0.10260E-03   -0.12560E-07  9204   0.502E-04    0.149E-03
DAV:  33    -0.760720331613E+03   -0.17822E-03   -0.23764E-07  9608   0.446E-04    0.130E-03
DAV:  34    -0.760720409278E+03   -0.77665E-04   -0.76055E-08  9168   0.404E-04    0.133E-03
DAV:  35    -0.760720462970E+03   -0.53693E-04   -0.48488E-08  9072   0.301E-04    0.134E-03
DAV:  36    -0.760720488081E+03   -0.25111E-04   -0.23237E-08  8960   0.236E-04    0.110E-03
DAV:  37    -0.760720498952E+03   -0.10871E-04   -0.10770E-08  8936   0.187E-04    0.856E-04
DAV:  38    -0.760720505321E+03   -0.63693E-05   -0.56395E-09  8920   0.128E-04    0.761E-04
DAV:  39    -0.760720507068E+03   -0.17467E-05   -0.22445E-09  9024   0.914E-05    0.757E-04
DAV:  40    -0.760720507696E+03   -0.62771E-06   -0.77330E-10  8936   0.494E-05
  44 F= -.78855525E+03 E0= -.78847910E+03  d E =-.547168E-02  mag=    11.4649
       N       E                     dE             d eps       ncg     rms          rms(c)
DAV:   1    -0.760659519739E+03    0.60987E-01   -0.15517E+01 14544   0.582E+00    0.826E-01
DAV:   2    -0.760739726750E+03   -0.80207E-01   -0.79846E-01 14976   0.115E+00    0.134E+00
DAV:   3    -0.760851708981E+03   -0.11198E+00   -0.34447E-01 15056   0.846E-01    0.363E+00
DAV:   4    -0.760732936329E+03    0.11877E+00   -0.51101E-01 15146   0.866E-01    0.109E+00
DAV:   5    -0.760732608704E+03    0.32763E-03   -0.47019E-02 14710   0.344E-01    0.799E-01
DAV:   6    -0.760730067968E+03    0.25407E-02   -0.54096E-03 15062   0.165E-01    0.502E-01
DAV:   7    -0.760729572078E+03    0.49589E-03   -0.35657E-03 14932   0.125E-01    0.240E-01
DAV:   8    -0.760730261056E+03   -0.68898E-03   -0.24276E-03 15000   0.117E-01    0.337E-01
DAV:   9    -0.760729435740E+03    0.82532E-03   -0.12636E-03 14904   0.728E-02    0.138E-01
DAV:  10    -0.760729518267E+03   -0.82527E-04   -0.22092E-04 15016   0.300E-02    0.120E-01
DAV:  11    -0.760729493990E+03    0.24277E-04   -0.77285E-05 15040   0.213E-02    0.716E-02
DAV:  12    -0.760729451786E+03    0.42204E-04   -0.49497E-05 14634   0.140E-02    0.336E-02
DAV:  13    -0.760729413582E+03    0.38204E-04   -0.27025E-05 14690   0.103E-02    0.295E-02
DAV:  14    -0.760729388053E+03    0.25529E-04   -0.30903E-05 14120   0.876E-03    0.288E-02
DAV:  15    -0.760729329194E+03    0.58858E-04   -0.14726E-05 12336   0.699E-03    0.338E-02
DAV:  16    -0.760729244304E+03    0.84891E-04   -0.15739E-05 12792   0.654E-03    0.256E-02
DAV:  17    -0.760729105122E+03    0.13918E-03   -0.18375E-05 11736   0.675E-03    0.192E-02
DAV:  18    -0.760728947547E+03    0.15757E-03   -0.71339E-06 12512   0.491E-03    0.203E-02
DAV:  19    -0.760728793146E+03    0.15440E-03   -0.21007E-06 10344   0.253E-03    0.237E-02
DAV:  20    -0.760728488957E+03    0.30419E-03   -0.29632E-06 10688   0.330E-03    0.221E-02
DAV:  21    -0.760728102450E+03    0.38651E-03   -0.44534E-06 10948   0.404E-03    0.139E-02
DAV:  22    -0.760727891610E+03    0.21084E-03   -0.38353E-06 10056   0.370E-03    0.893E-03
DAV:  23    -0.760727842479E+03    0.49131E-04   -0.19938E-06  9074   0.276E-03    0.901E-03
DAV:  24    -0.760727967419E+03   -0.12494E-03   -0.12761E-06  9770   0.226E-03    0.686E-03
DAV:  25    -0.760728087311E+03   -0.11989E-03   -0.13398E-06  9980   0.222E-03    0.743E-03
DAV:  26    -0.760728258197E+03   -0.17089E-03   -0.16509E-06 10348   0.161E-03    0.831E-03
DAV:  27    -0.760728399836E+03   -0.14164E-03   -0.65361E-07  9864   0.117E-03    0.656E-03
DAV:  28    -0.760728607878E+03   -0.20804E-03   -0.94937E-07 10244   0.132E-03    0.411E-03
DAV:  29    -0.760729077441E+03   -0.46956E-03   -0.30920E-06 11180   0.163E-03    0.471E-03
DAV:  30    -0.760729275130E+03   -0.19769E-03   -0.55858E-07 10064   0.101E-03    0.337E-03
DAV:  31    -0.760729402900E+03   -0.12777E-03   -0.24829E-07  9224   0.683E-04    0.225E-03
DAV:  32    -0.760729548882E+03   -0.14598E-03   -0.22702E-07  9512   0.651E-04    0.207E-03
DAV:  33    -0.760729764654E+03   -0.21577E-03   -0.35279E-07  9816   0.766E-04    0.184E-03
DAV:  34    -0.760729909316E+03   -0.14466E-03   -0.18830E-07  9408   0.608E-04    0.151E-03
DAV:  35    -0.760729993261E+03   -0.83945E-04   -0.92783E-08  9152   0.407E-04    0.160E-03
DAV:  36    -0.760730033538E+03   -0.40277E-04   -0.38441E-08  9016   0.317E-04    0.135E-03
DAV:  37    -0.760730068978E+03   -0.35440E-04   -0.25989E-08  8920   0.263E-04    0.983E-04
DAV:  38    -0.760730086977E+03   -0.17999E-04   -0.13661E-08  8920   0.201E-04    0.812E-04
DAV:  39    -0.760730092252E+03   -0.52750E-05   -0.60195E-09  8976   0.143E-04    0.770E-04
DAV:  40    -0.760730094541E+03   -0.22894E-05   -0.25866E-09  8952   0.778E-05    0.757E-04
DAV:  41    -0.760730095380E+03   -0.83842E-06   -0.10665E-09  8984   0.603E-05
  45 F= -.78855736E+03 E0= -.78848086E+03  d E =-.757782E-02  mag=    11.2980
       N       E                     dE             d eps       ncg     rms          rms(c)
DAV:   1    -0.760697087889E+03    0.33007E-01   -0.81473E+00 14672   0.433E+00    0.605E-01
DAV:   2    -0.760752178977E+03   -0.55091E-01   -0.48181E-01 14968   0.884E-01    0.149E+00
DAV:   3    -0.760770659799E+03   -0.18481E-01   -0.23047E-01 14896   0.592E-01    0.200E+00
DAV:   4    -0.760739401337E+03    0.31258E-01   -0.14336E-01 15178   0.479E-01    0.686E-01
DAV:   5    -0.760738444244E+03    0.95709E-03   -0.14596E-02 14624   0.196E-01    0.412E-01
DAV:   6    -0.760738236227E+03    0.20802E-03   -0.34943E-03 14942   0.116E-01    0.260E-01
DAV:   7    -0.760738844584E+03   -0.60836E-03   -0.27384E-03 14962   0.100E-01    0.349E-01
DAV:   8    -0.760738544501E+03    0.30008E-03   -0.13762E-03 14774   0.839E-02    0.260E-01
DAV:   9    -0.760738222432E+03    0.32207E-03   -0.43646E-04 14760   0.469E-02    0.156E-01
DAV:  10    -0.760738120586E+03    0.10185E-03   -0.17604E-04 14754   0.233E-02    0.708E-02
DAV:  11    -0.760738147979E+03   -0.27393E-04   -0.60606E-05 14688   0.170E-02    0.282E-02
DAV:  12    -0.760738138146E+03    0.98331E-05   -0.26492E-05 14282   0.109E-02    0.223E-02
DAV:  13    -0.760738120998E+03    0.17148E-04   -0.17095E-05 14104   0.716E-03    0.209E-02
DAV:  14    -0.760738106328E+03    0.14670E-04   -0.81551E-06  9984   0.482E-03    0.127E-02
DAV:  15    -0.760738065594E+03    0.40734E-04   -0.37871E-06  9312   0.378E-03    0.195E-02
DAV:  16    -0.760738022836E+03    0.42758E-04   -0.42118E-06  9050   0.386E-03    0.112E-02
DAV:  17    -0.760737990783E+03    0.32053E-04   -0.35003E-06  8968   0.292E-03    0.851E-03
DAV:  18    -0.760737966503E+03    0.24280E-04   -0.11430E-06  8936   0.188E-03    0.926E-03
DAV:  19    -0.760737937752E+03    0.28751E-04   -0.32569E-07  8748   0.119E-03    0.117E-02
DAV:  20    -0.760737851450E+03    0.86301E-04   -0.57526E-07  9068   0.169E-03    0.954E-03
DAV:  21    -0.760737722995E+03    0.12845E-03   -0.13866E-06  9294   0.238E-03    0.492E-03
DAV:  22    -0.760737682514E+03    0.40481E-04   -0.54732E-07  8936   0.141E-03    0.581E-03
DAV:  23    -0.760737691541E+03   -0.90261E-05   -0.35735E-07  8908   0.124E-03    0.538E-03
DAV:  24    -0.760737718303E+03   -0.26762E-04   -0.45073E-07  9008   0.116E-03    0.388E-03
DAV:  25    -0.760737759324E+03   -0.41021E-04   -0.44397E-07  9254   0.112E-03    0.271E-03
DAV:  26    -0.760737795154E+03   -0.35830E-04   -0.16941E-07  9060   0.700E-04    0.255E-03
DAV:  27    -0.760737841493E+03   -0.46339E-04   -0.13226E-07  9080   0.521E-04    0.225E-03
DAV:  28    -0.760737936747E+03   -0.95254E-04   -0.25716E-07  9376   0.587E-04    0.169E-03
DAV:  29    -0.760738044786E+03   -0.10804E-03   -0.20492E-07  9440   0.512E-04    0.155E-03
DAV:  30    -0.760738153130E+03   -0.10834E-03   -0.21176E-07  9552   0.442E-04    0.134E-03
DAV:  31    -0.760738218887E+03   -0.65757E-04   -0.12014E-07  9216   0.353E-04    0.127E-03
DAV:  32    -0.760738296520E+03   -0.77633E-04   -0.14716E-07  9408   0.359E-04    0.106E-03
DAV:  33    -0.760738346900E+03   -0.50380E-04   -0.81656E-08  9128   0.342E-04    0.929E-04
DAV:  34    -0.760738372588E+03   -0.25688E-04   -0.44426E-08  9024   0.277E-04    0.843E-04
DAV:  35    -0.760738392846E+03   -0.20258E-04   -0.26409E-08  8992   0.172E-04    0.807E-04
DAV:  36    -0.760738403848E+03   -0.11002E-04   -0.11710E-08  8984   0.126E-04    0.782E-04
DAV:  37    -0.760738413790E+03   -0.99416E-05   -0.68480E-09  8896   0.941E-05    0.781E-04
DAV:  38    -0.760738418520E+03   -0.47302E-05   -0.30459E-09  8952   0.943E-05    0.764E-04
DAV:  39    -0.760738421418E+03   -0.28987E-05   -0.19229E-09  8896   0.709E-05    0.744E-04
DAV:  40    -0.760738422272E+03   -0.85332E-06   -0.77526E-10  8992   0.497E-05
  46 F= -.78856158E+03 E0= -.78848483E+03  d E =-.422154E-02  mag=    11.2134
       N       E                     dE             d eps       ncg     rms          rms(c)
DAV:   1    -0.760630908209E+03    0.10751E+00   -0.22879E+01 14688   0.725E+00    0.102E+00
DAV:   2    -0.760787698856E+03   -0.15679E+00   -0.13741E+00 14984   0.148E+00    0.258E+00
DAV:   3    -0.760828817922E+03   -0.41119E-01   -0.58005E-01 14928   0.965E-01    0.309E+00
DAV:   4    -0.760754833610E+03    0.73984E-01   -0.43762E-01 15230   0.768E-01    0.132E+00
DAV:   5    -0.760747530779E+03    0.73028E-02   -0.44753E-02 14666   0.330E-01    0.713E-01
DAV:   6    -0.760751221913E+03   -0.36911E-02   -0.12012E-02 14864   0.212E-01    0.865E-01
DAV:   7    -0.760746505908E+03    0.47160E-02   -0.12438E-02 14898   0.235E-01    0.334E-01
DAV:   8    -0.760747179247E+03   -0.67334E-03   -0.32721E-03 14880   0.111E-01    0.339E-01
DAV:   9    -0.760746735666E+03    0.44358E-03   -0.12430E-03 14796   0.771E-02    0.251E-01
DAV:  10    -0.760746471945E+03    0.26372E-03   -0.38993E-04 15010   0.393E-02    0.133E-01
DAV:  11    -0.760746516522E+03   -0.44577E-04   -0.12418E-04 14780   0.296E-02    0.451E-02
DAV:  12    -0.760746573187E+03   -0.56665E-04   -0.66958E-05 14778   0.176E-02    0.273E-02
DAV:  13    -0.760746592922E+03   -0.19735E-04   -0.36545E-05 14536   0.109E-02    0.314E-02
DAV:  14    -0.760746593163E+03   -0.24098E-06   -0.24372E-05 13272   0.780E-03    0.201E-02
DAV:  15    -0.760746596447E+03   -0.32838E-05   -0.66999E-06 11840   0.541E-03    0.279E-02
DAV:  16    -0.760746586728E+03    0.97190E-05   -0.69568E-06 11408   0.600E-03    0.104E-02
DAV:  17    -0.760746585107E+03    0.16203E-05   -0.33705E-06  9266   0.328E-03    0.825E-03
DAV:  18    -0.760746587578E+03   -0.24701E-05   -0.19050E-06  8968   0.206E-03    0.896E-03
DAV:  19    -0.760746593347E+03   -0.57695E-05   -0.59673E-07  8976   0.156E-03    0.118E-02
DAV:  20    -0.760746619163E+03   -0.25816E-04   -0.63575E-07  9454   0.151E-03    0.978E-03
DAV:  21    -0.760746652548E+03   -0.33385E-04   -0.13948E-06  9924   0.229E-03    0.533E-03
DAV:  22    -0.760746692083E+03   -0.39535E-04   -0.80113E-07  9540   0.160E-03    0.628E-03
DAV:  23    -0.760746728775E+03   -0.36692E-04   -0.27598E-07  8934   0.121E-03    0.608E-03
DAV:  24    -0.760746789182E+03   -0.60406E-04   -0.43583E-07  9246   0.131E-03    0.481E-03
DAV:  25    -0.760746875104E+03   -0.85922E-04   -0.63469E-07  9792   0.128E-03    0.347E-03
DAV:  26    -0.760746934992E+03   -0.59888E-04   -0.27787E-07  9098   0.917E-04    0.258E-03
DAV:  27    -0.760746984406E+03   -0.49414E-04   -0.16571E-07  9048   0.670E-04    0.201E-03
DAV:  28    -0.760747045429E+03   -0.61023E-04   -0.14657E-07  8882   0.614E-04    0.193E-03
DAV:  29    -0.760747101729E+03   -0.56300E-04   -0.74224E-08  8936   0.559E-04    0.166E-03
DAV:  30    -0.760747161458E+03   -0.59729E-04   -0.70876E-08  9072   0.425E-04    0.120E-03
DAV:  31    -0.760747196833E+03   -0.35375E-04   -0.41256E-08  8944   0.351E-04    0.119E-03
DAV:  32    -0.760747240108E+03   -0.43275E-04   -0.47309E-08  8968   0.337E-04    0.115E-03
DAV:  33    -0.760747269861E+03   -0.29753E-04   -0.29655E-08  8952   0.266E-04    0.104E-03
DAV:  34    -0.760747302342E+03   -0.32482E-04   -0.35515E-08  8976   0.224E-04    0.839E-04
DAV:  35    -0.760747329320E+03   -0.26978E-04   -0.46953E-08  8952   0.215E-04    0.776E-04
DAV:  36    -0.760747339769E+03   -0.10449E-04   -0.18495E-08  8888   0.172E-04    0.760E-04
DAV:  37    -0.760747348600E+03   -0.88308E-05   -0.14306E-08  8880   0.129E-04    0.760E-04
DAV:  38    -0.760747354211E+03   -0.56110E-05   -0.99590E-09  8936   0.108E-04    0.748E-04
DAV:  39    -0.760747358324E+03   -0.41125E-05   -0.67668E-09  8888   0.773E-05    0.732E-04
DAV:  40    -0.760747360853E+03   -0.25290E-05   -0.50994E-09  8880   0.638E-05    0.719E-04
DAV:  41    -0.760747362596E+03   -0.17430E-05   -0.39569E-09  8842   0.550E-05    0.712E-04
DAV:  42    -0.760747363712E+03   -0.11162E-05   -0.32769E-09  8848   0.483E-05    0.713E-04
DAV:  43    -0.760747363958E+03   -0.24633E-06   -0.12627E-09  8888   0.331E-05
  47 F= -.78856365E+03 E0= -.78848665E+03  d E =-.628579E-02  mag=    11.1153
       N       E                     dE             d eps       ncg     rms          rms(c)
DAV:   1    -0.760714924465E+03    0.32439E-01   -0.14226E+01 14328   0.476E+00    0.757E-01
DAV:   2    -0.760772590691E+03   -0.57666E-01   -0.47479E-01 14952   0.897E-01    0.163E+00
DAV:   3    -0.760834572871E+03   -0.61982E-01   -0.34833E-01 14962   0.801E-01    0.300E+00
DAV:   4    -0.760758337724E+03    0.76235E-01   -0.30204E-01 14946   0.655E-01    0.118E+00
DAV:   5    -0.760754946733E+03    0.33910E-02   -0.24940E-02 14800   0.275E-01    0.660E-01
DAV:   6    -0.760754416500E+03    0.53023E-03   -0.73181E-03 14834   0.158E-01    0.445E-01
DAV:   7    -0.760753852279E+03    0.56422E-03   -0.67604E-03 14912   0.154E-01    0.290E-01
DAV:   8    -0.760753310055E+03    0.54222E-03   -0.25173E-03 14902   0.962E-02    0.136E-01
DAV:   9    -0.760753446945E+03   -0.13689E-03   -0.66963E-04 14804   0.560E-02    0.205E-01
DAV:  10    -0.760753188433E+03    0.25851E-03   -0.19479E-04 14936   0.286E-02    0.132E-01
DAV:  11    -0.760753120935E+03    0.67499E-04   -0.73047E-05 14848   0.244E-02    0.327E-02
DAV:  12    -0.760753143987E+03   -0.23052E-04   -0.38236E-05 13944   0.103E-02    0.237E-02
DAV:  13    -0.760753135063E+03    0.89235E-05   -0.29591E-05 13904   0.824E-03    0.273E-02
DAV:  14    -0.760753120167E+03    0.14896E-04   -0.12687E-05 11352   0.606E-03    0.147E-02
DAV:  15    -0.760753115275E+03    0.48920E-05   -0.66614E-06  9784   0.458E-03    0.198E-02
DAV:  16    -0.760753110233E+03    0.50415E-05   -0.63868E-06  9352   0.386E-03    0.166E-02
DAV:  17    -0.760753112084E+03   -0.18503E-05   -0.30773E-06  9610   0.412E-03    0.908E-03
DAV:  18    -0.760753130965E+03   -0.18882E-04   -0.11158E-06  9584   0.182E-03    0.905E-03
DAV:  19    -0.760753161812E+03   -0.30846E-04   -0.63923E-07  9258   0.163E-03    0.118E-02
DAV:  20    -0.760753232406E+03   -0.70595E-04   -0.10494E-06 10064   0.160E-03    0.128E-02
DAV:  21    -0.760753354218E+03   -0.12181E-03   -0.35926E-06 11008   0.270E-03    0.856E-03
DAV:  22    -0.760753455009E+03   -0.10079E-03   -0.45339E-06 11522   0.260E-03    0.496E-03
DAV:  23    -0.760753508144E+03   -0.53136E-04   -0.77138E-07  9592   0.174E-03    0.412E-03
DAV:  24    -0.760753584691E+03   -0.76547E-04   -0.49910E-07  8838   0.134E-03    0.403E-03
DAV:  25    -0.760753723043E+03   -0.13835E-03   -0.34518E-07  9360   0.105E-03    0.328E-03
DAV:  26    -0.760753859675E+03   -0.13663E-03   -0.27632E-07  9204   0.943E-04    0.197E-03
DAV:  27    -0.760753936913E+03   -0.77238E-04   -0.12336E-07  9048   0.643E-04    0.192E-03
DAV:  28    -0.760754019608E+03   -0.82696E-04   -0.77632E-08  8944   0.487E-04    0.203E-03
DAV:  29    -0.760754115626E+03   -0.96017E-04   -0.54623E-08  8904   0.483E-04    0.165E-03
DAV:  30    -0.760754208901E+03   -0.93275E-04   -0.45992E-08  8872   0.439E-04    0.116E-03
DAV:  31    -0.760754297082E+03   -0.88182E-04   -0.40363E-08  8952   0.319E-04    0.937E-04
DAV:  32    -0.760754324469E+03   -0.27387E-04   -0.14706E-08  8816   0.252E-04    0.108E-03
DAV:  33    -0.760754347147E+03   -0.22678E-04   -0.10466E-08  8840   0.159E-04    0.122E-03
DAV:  34    -0.760754366249E+03   -0.19101E-04   -0.97414E-09  8832   0.163E-04    0.937E-04
DAV:  35    -0.760754379326E+03   -0.13077E-04   -0.10485E-08  8872   0.173E-04    0.771E-04
DAV:  36    -0.760754384883E+03   -0.55574E-05   -0.62878E-09  8952   0.118E-04    0.756E-04
DAV:  37    -0.760754389285E+03   -0.44024E-05   -0.78774E-09  8824   0.100E-04    0.760E-04
DAV:  38    -0.760754392832E+03   -0.35469E-05   -0.88405E-09  8864   0.933E-05    0.751E-04
DAV:  39    -0.760754394665E+03   -0.18328E-05   -0.75160E-09  8896   0.830E-05    0.724E-04
DAV:  40    -0.760754395315E+03   -0.64983E-06   -0.41527E-09  8872   0.651E-05
  48 F= -.78856767E+03 E0= -.78849110E+03  d E =-.402729E-02  mag=    11.0049
       N       E                     dE             d eps       ncg     rms          rms(c)
DAV:   1    -0.760754455853E+03   -0.61188E-04   -0.25579E-02 14808   0.202E-01    0.320E-02
DAV:   2    -0.760754547537E+03   -0.91684E-04   -0.84019E-04 14738   0.379E-02    0.632E-02
DAV:   3    -0.760754681704E+03   -0.13417E-03   -0.37914E-04 14376   0.346E-02    0.154E-01
DAV:   4    -0.760754502615E+03    0.17909E-03   -0.35050E-04 13914   0.293E-02    0.465E-02
DAV:   5    -0.760754519773E+03   -0.17158E-04   -0.37241E-05 12966   0.119E-02    0.294E-02
DAV:   6    -0.760754523828E+03   -0.40554E-05   -0.78649E-06 12994   0.690E-03    0.144E-02
DAV:   7    -0.760754527177E+03   -0.33488E-05   -0.83415E-06 10402   0.623E-03    0.154E-02
DAV:   8    -0.760754524204E+03    0.29728E-05   -0.48563E-06 10224   0.460E-03    0.528E-03
DAV:   9    -0.760754523027E+03    0.11770E-05   -0.12574E-06  8516   0.237E-03    0.675E-03
DAV:  10    -0.760754522458E+03    0.56927E-06   -0.32827E-07  8874   0.110E-03
  49 F= -.78856767E+03 E0= -.78849111E+03  d E =-.402707E-02  mag=    11.0041
       N       E                     dE             d eps       ncg     rms          rms(c)
DAV:   1    -0.760750172795E+03    0.43502E-02   -0.51241E-01 17014   0.150E+00    0.183E-01
DAV:   2    -0.760769920357E+03   -0.19748E-01   -0.86659E-02 14868   0.397E-01    0.129E+00
DAV:   3    -0.760753843808E+03    0.16077E-01   -0.33990E-02 14912   0.264E-01    0.185E-01
DAV:   4    -0.760755980746E+03   -0.21369E-02   -0.20769E-03 14774   0.915E-02    0.276E-01
DAV:   5    -0.760755485898E+03    0.49485E-03   -0.11256E-03 14524   0.654E-02    0.113E-01
DAV:   6    -0.760755513001E+03   -0.27103E-04   -0.27859E-04 14606   0.404E-02    0.102E-01
DAV:   7    -0.760755508402E+03    0.45989E-05   -0.15018E-04 15120   0.271E-02    0.728E-02
DAV:   8    -0.760755504015E+03    0.43875E-05   -0.80684E-05 15154   0.237E-02    0.390E-02
DAV:   9    -0.760755486545E+03    0.17470E-04   -0.32563E-05 14776   0.130E-02    0.169E-02
DAV:  10    -0.760755486608E+03   -0.63097E-07   -0.16432E-05 13880   0.558E-03    0.136E-02
DAV:  11    -0.760755485749E+03    0.85984E-06   -0.41298E-06  8864   0.335E-03
  50 F= -.78856917E+03 E0= -.78849279E+03  d E =-.149368E-02  mag=    11.0081
