       N       E                     dE             d eps       ncg     rms          rms(c)
DAV:   1     0.589055311896E+03    0.58906E+03   -0.34264E+04 13456   0.172E+03
DAV:   2    -0.766366201718E+01   -0.59672E+03   -0.57505E+03 14980   0.491E+02
DAV:   3    -0.405684588188E+02   -0.32905E+02   -0.32547E+02 14188   0.120E+02
DAV:   4    -0.409924551806E+02   -0.42400E+00   -0.42337E+00 14312   0.147E+01
DAV:   5    -0.409972669195E+02   -0.48117E-02   -0.48113E-02 13892   0.157E+00    0.281E+01
DAV:   6    -0.356232288167E+02    0.53740E+01   -0.51650E+01 13924   0.655E+01    0.155E+01
DAV:   7    -0.321944198021E+02    0.34288E+01   -0.15462E+01 13640   0.359E+01    0.536E+00
DAV:   8    -0.321434273390E+02    0.50992E-01   -0.12771E+00 13740   0.661E+00    0.300E+00
DAV:   9    -0.321185292518E+02    0.24898E-01   -0.12653E-01 14092   0.319E+00    0.856E-01
DAV:  10    -0.321152259037E+02    0.33033E-02   -0.19379E-02 13836   0.132E+00    0.257E-01
DAV:  11    -0.321155078255E+02   -0.28192E-03   -0.20642E-03 13852   0.365E-01    0.121E-01
DAV:  12    -0.321155089049E+02   -0.10794E-05   -0.16633E-04 13916   0.889E-02    0.580E-02
DAV:  13    -0.321155487269E+02   -0.39822E-04   -0.12359E-04 13732   0.711E-02    0.306E-02
DAV:  14    -0.321155676080E+02   -0.18881E-04   -0.15934E-05 13956   0.245E-02    0.258E-02
DAV:  15    -0.321155848598E+02   -0.17252E-04   -0.20490E-05 14076   0.261E-02    0.230E-02
DAV:  16    -0.321155953909E+02   -0.10531E-04   -0.71003E-06 13476   0.153E-02    0.218E-02
DAV:  17    -0.321156240084E+02   -0.28617E-04   -0.15610E-04 13812   0.722E-02    0.142E-02
DAV:  18    -0.321156448923E+02   -0.20884E-04   -0.56707E-05 14000   0.419E-02    0.103E-02
DAV:  19    -0.321156564694E+02   -0.11577E-04   -0.30872E-05 13880   0.314E-02    0.689E-03
DAV:  20    -0.321156605805E+02   -0.41111E-05   -0.54945E-05 14036   0.415E-02    0.418E-03
DAV:  21    -0.321156665063E+02   -0.59258E-05   -0.22899E-06 10352   0.135E-02    0.274E-03
DAV:  22    -0.321156653960E+02    0.11103E-05   -0.23143E-05 13952   0.275E-02    0.271E-03
DAV:  23    -0.321156675388E+02   -0.21428E-05   -0.11681E-06  7412   0.935E-03    0.315E-04
DAV:  24    -0.321156675568E+02   -0.17968E-07   -0.45206E-08  6528   0.177E-03
   1 F= -.33529687E+02 E0= -.33526442E+02  d E =-.648988E-02  mag=     0.0003
