 vasp.6.4.3 19Mar24 (build Nov 27 2025 15:18:09) complex                         
 executed on              LinuxNV date 2026.06.04  16:47:42
 running    4 mpi-ranks, with    1 threads/rank, on    1 nodes
 distrk:  each k-point on    4 cores,    1 groups
 distr:  one band on NCORE=   1 cores,    4 groups
 OpenACC runtime initialized ...    0 GPUs detected


--------------------------------------------------------------------------------------------------------


 INCAR:
   SYSTEM = pddmc
   ENCUT = 520
   PREC = Accurate
   LASPH = .TRUE.
   ADDGRID = .TRUE.
   ISPIN = 2
   IVDW = 12
   EDIFF = 1e-06
   NELM = 200
   NELMIN = 5
   ALGO = Normal
   NCORE = 1
   LREAL = .FALSE.
   LWAVE = .FALSE.
   LCHARG = .FALSE.
   LORBIT = 11
   ISYM = 2
   IBRION = -1
   NSW = 0
   ISIF = 0
   ISMEAR = 0
   SIGMA = 0.05
   EDIFFG = -0.01

 POTCAR:    PAW_PBE Pd_pv 28Jan2005               
 POTCAR:    PAW_PBE O 08Apr2002                   
 -----------------------------------------------------------------------------
|                                                                             |
|           W    W    AA    RRRRR   N    N  II  N    N   GGGG   !!!           |
|           W    W   A  A   R    R  NN   N  II  NN   N  G    G  !!!           |
|           W    W  A    A  R    R  N N  N  II  N N  N  G       !!!           |
|           W WW W  AAAAAA  RRRRR   N  N N  II  N  N N  G  GGG   !            |
|           WW  WW  A    A  R   R   N   NN  II  N   NN  G    G                |
|           W    W  A    A  R    R  N    N  II  N    N   GGGG   !!!           |
|                                                                             |
|     You use a magnetic or noncollinear calculation, but did not specify     |
|     the initial magnetic moment with the MAGMOM tag. Note that a            |
|     default of 1 will be used for all atoms. This ferromagnetic setup       |
|     may break the symmetry of the crystal, in particular it may rule        |
|     out finding an antiferromagnetic solution. Thence, we recommend         |
|     setting the initial magnetic moment manually or verifying carefully     |
|     that this magnetic setup is desired.                                    |
|                                                                             |
 -----------------------------------------------------------------------------

 POTCAR:    PAW_PBE Pd_pv 28Jan2005               
   SHA256 =  3ce661545bbde58da9a95410dea32907db2844916708bcd35bbe03ee66324d7f Pd_pv/POTCAR          
   COPYR  = (c) Copyright 28Jan2005 Georg Kresse                                                    
   COPYR  = This file is part of the software VASP. Any use, copying, and all other rights are regul
   COPYR  = If you do not have a valid VASP license, you may not use, copy or distribute this file. 
   VRHFIN =Pd: 4p5s4d                                                                               
   LEXCH  = PE                                                                                      
   EATOM  =  2621.5550 eV,  192.6789 Ry                                                             
                                                                                                    
   TITEL  = PAW_PBE Pd_pv 28Jan2005                                                                 
   LULTRA =        F    use ultrasoft PP ?                                                          
   IUNSCR =        1    unscreen: 0-lin 1-nonlin 2-no                                               
   RPACOR =    2.250    partial core radius                                                         
   POMASS =  106.420; ZVAL   =   16.000    mass and valenz                                          
   RCORE  =    2.400    outmost cutoff radius                                                       
   RWIGS  =    2.300; RWIGS  =    1.217    wigner-seitz radius (au A)                               
   ENMAX  =  250.925; ENMIN  =  188.194 eV                                                          
   ICORE  =        3    local potential                                                             
   LCOR   =        T    correct aug charges                                                         
   LPAW   =        T    paw PP                                                                      
   EAUG   =  473.067                                                                                
   DEXC   =    0.000                                                                                
   RMAX   =    2.449    core radius for proj-oper                                                   
   RAUG   =    1.300    factor for augmentation sphere                                              
   RDEP   =    2.405    radius for radial grids                                                     
   RDEPT  =    1.966    core radius for aug-charge                                                  
                                                                                                    
   Atomic configuration                                                                             
   11 entries                                                                                       
     n  l   j            E        occ.                                                              
     1  0  0.50    -24164.6632   2.0000                                                             
     2  0  0.50     -3530.9218   2.0000                                                             
     2  1  1.50     -3165.6822   6.0000                                                             
     3  0  0.50      -639.4578   2.0000                                                             
     3  1  1.50      -519.4532   6.0000                                                             
     3  2  2.50      -328.9758  10.0000                                                             
     4  0  0.50       -88.7014   2.0000                                                             
     4  1  1.50       -54.4541   6.0000                                                             
     4  2  2.50        -6.6878   9.0000                                                             
     5  0  0.50        -4.3543   1.0000                                                             
     4  3  2.50        -1.3606   0.0000                                                             
   Description                                                                                      
     l       E           TYP  RCUT    TYP  RCUT                                                     
     1    -54.4540524     23  2.100                                                                 
     1      4.0817478     23  2.100                                                                 
     2     -6.6878326     23  2.400                                                                 
     2     -4.0817478     23  2.400                                                                 
     0     -4.3542962     23  2.400                                                                 
     0     13.6058260     23  2.400                                                                 
     3     -5.4423304     23  2.400                                                                 
  local pseudopotential read in
  partial core-charges read in
  partial kinetic energy density read in
  atomic valenz-charges read in
  non local Contribution for L=            1  read in
    real space projection operators read in
  non local Contribution for L=            1  read in
    real space projection operators read in
  non local Contribution for L=            2  read in
    real space projection operators read in
  non local Contribution for L=            2  read in
    real space projection operators read in
  non local Contribution for L=            0  read in
    real space projection operators read in
  non local Contribution for L=            0  read in
    real space projection operators read in
    PAW grid and wavefunctions read in
 
   number of l-projection  operators is LMAX  =            6
   number of lm-projection operators is LMMAX =           18
 
 POTCAR:    PAW_PBE O 08Apr2002                   
   SHA256 =  818f92134a0a090dccd8ba1447fa70422a3b330e708bb4f08108d8ae51209ddf O/POTCAR              
   COPYR  = (c) Copyright 08Apr2002 Georg Kresse                                                    
   COPYR  = This file is part of the software VASP. Any use, copying, and all other rights are regul
   COPYR  = If you do not have a valid VASP license, you may not use, copy or distribute this file. 
   VRHFIN =O: s2p4                                                                                  
   LEXCH  = PE                                                                                      
   EATOM  =   432.3788 eV,   31.7789 Ry                                                             
                                                                                                    
   TITEL  = PAW_PBE O 08Apr2002                                                                     
   LULTRA =        F    use ultrasoft PP ?                                                          
   IUNSCR =        1    unscreen: 0-lin 1-nonlin 2-no                                               
   RPACOR =    1.200    partial core radius                                                         
   POMASS =   16.000; ZVAL   =    6.000    mass and valenz                                          
   RCORE  =    1.520    outmost cutoff radius                                                       
   RWIGS  =    1.550; RWIGS  =    0.820    wigner-seitz radius (au A)                               
   ENMAX  =  400.000; ENMIN  =  300.000 eV                                                          
   ICORE  =        2    local potential                                                             
   LCOR   =        T    correct aug charges                                                         
   LPAW   =        T    paw PP                                                                      
   EAUG   =  605.392                                                                                
   DEXC   =    0.000                                                                                
   RMAX   =    1.553    core radius for proj-oper                                                   
   RAUG   =    1.300    factor for augmentation sphere                                              
   RDEP   =    1.550    radius for radial grids                                                     
   RDEPT  =    1.329    core radius for aug-charge                                                  
                                                                                                    
   Atomic configuration                                                                             
    4 entries                                                                                       
     n  l   j            E        occ.                                                              
     1  0  0.50      -514.6923   2.0000                                                             
     2  0  0.50       -23.9615   2.0000                                                             
     2  1  0.50        -9.0305   4.0000                                                             
     3  2  1.50        -9.5241   0.0000                                                             
   Description                                                                                      
     l       E           TYP  RCUT    TYP  RCUT                                                     
     0    -23.9615318     23  1.200                                                                 
     0     -9.5240782     23  1.200                                                                 
     1     -9.0304911     23  1.520                                                                 
     1      8.1634956     23  1.520                                                                 
     2     -9.5240782      7  1.500                                                                 
  local pseudopotential read in
  partial core-charges read in
  partial kinetic energy density read in
  kinetic energy density of atom read in
  atomic valenz-charges read in
  non local Contribution for L=            0  read in
    real space projection operators read in
  non local Contribution for L=            0  read in
    real space projection operators read in
  non local Contribution for L=            1  read in
    real space projection operators read in
  non local Contribution for L=            1  read in
    real space projection operators read in
    PAW grid and wavefunctions read in
 
   number of l-projection  operators is LMAX  =            4
   number of lm-projection operators is LMMAX =            8
 
  PAW_PBE Pd_pv 28Jan2005               :
 energy of atom  1       EATOM=-2621.5550
 kinetic energy error for atom=    0.0088 (will be added to EATOM!!)
  PAW_PBE O 08Apr2002                   :
 energy of atom  2       EATOM= -432.3788
 kinetic energy error for atom=    0.0208 (will be added to EATOM!!)
 
 
 POSCAR: Pd O
  positions in cartesian coordinates
  No initial velocities read in
 IVDW         = 12
 VDW_S6       =    1.0000
 VDW_S8       =    0.7875
 VDW_A1       =    0.4289
 VDW_A2       =    4.4407
 VDW_RADIUS   =   50.2022 A
 VDW_CNRADIUS =   21.1671 A


 exchange-correlation table for PE
   RHO(1)=    0.500       N(1)  =     2000
   RHO(2)=  100.500       N(2)  =     4000
 


--------------------------------------------------------------------------------------------------------


 ion  position               nearest neighbor table
   1  0.500  0.500  0.500-   3 1.97   4 1.97   5 2.00   6 2.00   5 2.00   6 2.00
   2  0.000  0.000  0.000-   5 1.97   6 1.97   3 2.00   4 2.00   3 2.00   4 2.00
   3  0.808  0.192  0.500-   1 1.97   2 2.00   2 2.00
   4  0.192  0.808  0.500-   1 1.97   2 2.00   2 2.00
   5  0.308  0.308  0.000-   2 1.97   1 2.00   1 2.00
   6  0.692  0.692  0.000-   2 1.97   1 2.00   1 2.00
 
  LATTYP: Found a simple tetragonal cell.
 ALAT       =     4.5222304600
 C/A-ratio  =     0.6957349162
  
  Lattice vectors:
  
 A1 = (   4.5222304600,   0.0000000000,   0.0000000000)
 A2 = (   0.0000000000,   4.5222304600,   0.0000000000)
 A3 = (   0.0000000000,   0.0000000000,   3.1462736300)


Analysis of symmetry for initial positions (statically):
=====================================================================
 Subroutine PRICEL returns:
 Original cell was already a primitive cell.
 

 Routine SETGRP: Setting up the symmetry group for a 
 simple tetragonal supercell.


 Subroutine GETGRP returns: Found 16 space group operations
 (whereof  8 operations were pure point group operations)
 out of a pool of 16 trial point group operations.


The static configuration has the point symmetry D_2h.
 The point group associated with its full space group is D_4h.


Analysis of symmetry for dynamics (positions and initial velocities):
=====================================================================
 Subroutine PRICEL returns:
 Original cell was already a primitive cell.
 

 Routine SETGRP: Setting up the symmetry group for a 
 simple tetragonal supercell.


 Subroutine GETGRP returns: Found 16 space group operations
 (whereof  8 operations were pure point group operations)
 out of a pool of 16 trial point group operations.


The dynamic configuration has the point symmetry D_2h.
 The point group associated with its full space group is D_4h.


Analysis of structural, dynamic, and magnetic symmetry:
=====================================================================
 Subroutine PRICEL returns:
 Original cell was already a primitive cell.
 

 Routine SETGRP: Setting up the symmetry group for a 
 simple tetragonal supercell.


 Subroutine GETGRP returns: Found 16 space group operations
 (whereof  8 operations were pure point group operations)
 out of a pool of 16 trial point group operations.


The overall configuration has the point symmetry D_2h.
 The point group associated with its full space group is D_4h.


 Subroutine INISYM returns: Found 16 space group operations
 (whereof  8 operations are pure point group operations),
 and found     1 'primitive' translations


----------------------------------------------------------------------------------------

                                     Primitive cell                                     

  volume of cell :      64.3431

  direct lattice vectors                    reciprocal lattice vectors
     4.522230460  0.000000000  0.000000000     0.221129818 -0.000000000  0.000000000
     0.000000000  4.522230460  0.000000000     0.000000000  0.221129818  0.000000000
     0.000000000  0.000000000  3.146273630    -0.000000000 -0.000000000  0.317836310

  length of vectors
     4.522230460  4.522230460  3.146273630     0.221129818  0.221129818  0.317836310

  position of ions in fractional coordinates (direct lattice)
     0.500000000  0.500000000  0.500000000
     0.000000000  0.000000000  0.000000000
     0.808151920  0.191848080  0.500000000
     0.191848080  0.808151920  0.500000000
     0.308151920  0.308151920  1.000000000
     0.691848080  0.691848080  1.000000000

  ion indices of the primitive-cell ions
   primitive index   ion index
                 1           1
                 2           2
                 3           3
                 4           4
                 5           5
                 6           6

----------------------------------------------------------------------------------------

 
 
 KPOINTS: Automatic mesh                          

Automatic generation of k-mesh.
 Grid dimensions read from file:
 generate k-points for:    8    8   10

 Generating k-lattice:

  Cartesian coordinates                     Fractional coordinates (reciprocal lattice)
     0.027641227 -0.000000000  0.000000000     0.125000000 -0.000000000  0.000000000
     0.000000000  0.027641227  0.000000000     0.000000000  0.125000000  0.000000000
    -0.000000000 -0.000000000  0.031783631     0.000000000  0.000000000  0.100000000

  Length of vectors
     0.027641227  0.027641227  0.031783631

  Shift w.r.t. Gamma in fractional coordinates (k-lattice)
     0.000000000  0.000000000  0.000000000

 
 Subroutine IBZKPT returns following result:
 ===========================================
 
 Found     90 irreducible k-points:
 
 Following reciprocal coordinates:
            Coordinates               Weight
  0.000000  0.000000  0.000000      1.000000
  0.125000  0.000000  0.000000      4.000000
  0.250000  0.000000  0.000000      4.000000
  0.375000  0.000000  0.000000      4.000000
  0.500000  0.000000  0.000000      2.000000
  0.125000  0.125000  0.000000      4.000000
  0.250000  0.125000  0.000000      8.000000
  0.375000  0.125000  0.000000      8.000000
  0.500000  0.125000  0.000000      4.000000
  0.250000  0.250000  0.000000      4.000000
  0.375000  0.250000  0.000000      8.000000
  0.500000  0.250000  0.000000      4.000000
  0.375000  0.375000  0.000000      4.000000
  0.500000  0.375000  0.000000      4.000000
  0.500000  0.500000  0.000000      1.000000
  0.000000  0.000000  0.100000      2.000000
  0.125000  0.000000  0.100000      8.000000
  0.250000  0.000000  0.100000      8.000000
  0.375000  0.000000  0.100000      8.000000
  0.500000  0.000000  0.100000      4.000000
  0.125000  0.125000  0.100000      8.000000
  0.250000  0.125000  0.100000     16.000000
  0.375000  0.125000  0.100000     16.000000
  0.500000  0.125000  0.100000      8.000000
  0.250000  0.250000  0.100000      8.000000
  0.375000  0.250000  0.100000     16.000000
  0.500000  0.250000  0.100000      8.000000
  0.375000  0.375000  0.100000      8.000000
  0.500000  0.375000  0.100000      8.000000
  0.500000  0.500000  0.100000      2.000000
  0.000000  0.000000  0.200000      2.000000
  0.125000  0.000000  0.200000      8.000000
  0.250000  0.000000  0.200000      8.000000
  0.375000  0.000000  0.200000      8.000000
  0.500000  0.000000  0.200000      4.000000
  0.125000  0.125000  0.200000      8.000000
  0.250000  0.125000  0.200000     16.000000
  0.375000  0.125000  0.200000     16.000000
  0.500000  0.125000  0.200000      8.000000
  0.250000  0.250000  0.200000      8.000000
  0.375000  0.250000  0.200000     16.000000
  0.500000  0.250000  0.200000      8.000000
  0.375000  0.375000  0.200000      8.000000
  0.500000  0.375000  0.200000      8.000000
  0.500000  0.500000  0.200000      2.000000
  0.000000  0.000000  0.300000      2.000000
  0.125000  0.000000  0.300000      8.000000
  0.250000  0.000000  0.300000      8.000000
  0.375000  0.000000  0.300000      8.000000
  0.500000  0.000000  0.300000      4.000000
  0.125000  0.125000  0.300000      8.000000
  0.250000  0.125000  0.300000     16.000000
  0.375000  0.125000  0.300000     16.000000
  0.500000  0.125000  0.300000      8.000000
  0.250000  0.250000  0.300000      8.000000
  0.375000  0.250000  0.300000     16.000000
  0.500000  0.250000  0.300000      8.000000
  0.375000  0.375000  0.300000      8.000000
  0.500000  0.375000  0.300000      8.000000
  0.500000  0.500000  0.300000      2.000000
  0.000000  0.000000  0.400000      2.000000
  0.125000  0.000000  0.400000      8.000000
  0.250000  0.000000  0.400000      8.000000
  0.375000  0.000000  0.400000      8.000000
  0.500000  0.000000  0.400000      4.000000
  0.125000  0.125000  0.400000      8.000000
  0.250000  0.125000  0.400000     16.000000
  0.375000  0.125000  0.400000     16.000000
  0.500000  0.125000  0.400000      8.000000
  0.250000  0.250000  0.400000      8.000000
  0.375000  0.250000  0.400000     16.000000
  0.500000  0.250000  0.400000      8.000000
  0.375000  0.375000  0.400000      8.000000
  0.500000  0.375000  0.400000      8.000000
  0.500000  0.500000  0.400000      2.000000
  0.000000  0.000000  0.500000      1.000000
  0.125000  0.000000  0.500000      4.000000
  0.250000  0.000000  0.500000      4.000000
  0.375000  0.000000  0.500000      4.000000
  0.500000  0.000000  0.500000      2.000000
  0.125000  0.125000  0.500000      4.000000
  0.250000  0.125000  0.500000      8.000000
  0.375000  0.125000  0.500000      8.000000
  0.500000  0.125000  0.500000      4.000000
  0.250000  0.250000  0.500000      4.000000
  0.375000  0.250000  0.500000      8.000000
  0.500000  0.250000  0.500000      4.000000
  0.375000  0.375000  0.500000      4.000000
  0.500000  0.375000  0.500000      4.000000
  0.500000  0.500000  0.500000      1.000000
 
 Following cartesian coordinates:
            Coordinates               Weight
  0.000000  0.000000  0.000000      1.000000
  0.027641  0.000000  0.000000      4.000000
  0.055282  0.000000  0.000000      4.000000
  0.082924  0.000000  0.000000      4.000000
  0.110565  0.000000  0.000000      2.000000
  0.027641  0.027641  0.000000      4.000000
  0.055282  0.027641  0.000000      8.000000
  0.082924  0.027641  0.000000      8.000000
  0.110565  0.027641  0.000000      4.000000
  0.055282  0.055282  0.000000      4.000000
  0.082924  0.055282  0.000000      8.000000
  0.110565  0.055282  0.000000      4.000000
  0.082924  0.082924  0.000000      4.000000
  0.110565  0.082924  0.000000      4.000000
  0.110565  0.110565  0.000000      1.000000
  0.000000  0.000000  0.031784      2.000000
  0.027641  0.000000  0.031784      8.000000
  0.055282  0.000000  0.031784      8.000000
  0.082924  0.000000  0.031784      8.000000
  0.110565  0.000000  0.031784      4.000000
  0.027641  0.027641  0.031784      8.000000
  0.055282  0.027641  0.031784     16.000000
  0.082924  0.027641  0.031784     16.000000
  0.110565  0.027641  0.031784      8.000000
  0.055282  0.055282  0.031784      8.000000
  0.082924  0.055282  0.031784     16.000000
  0.110565  0.055282  0.031784      8.000000
  0.082924  0.082924  0.031784      8.000000
  0.110565  0.082924  0.031784      8.000000
  0.110565  0.110565  0.031784      2.000000
  0.000000  0.000000  0.063567      2.000000
  0.027641  0.000000  0.063567      8.000000
  0.055282  0.000000  0.063567      8.000000
  0.082924  0.000000  0.063567      8.000000
  0.110565  0.000000  0.063567      4.000000
  0.027641  0.027641  0.063567      8.000000
  0.055282  0.027641  0.063567     16.000000
  0.082924  0.027641  0.063567     16.000000
  0.110565  0.027641  0.063567      8.000000
  0.055282  0.055282  0.063567      8.000000
  0.082924  0.055282  0.063567     16.000000
  0.110565  0.055282  0.063567      8.000000
  0.082924  0.082924  0.063567      8.000000
  0.110565  0.082924  0.063567      8.000000
  0.110565  0.110565  0.063567      2.000000
  0.000000  0.000000  0.095351      2.000000
  0.027641  0.000000  0.095351      8.000000
  0.055282  0.000000  0.095351      8.000000
  0.082924  0.000000  0.095351      8.000000
  0.110565  0.000000  0.095351      4.000000
  0.027641  0.027641  0.095351      8.000000
  0.055282  0.027641  0.095351     16.000000
  0.082924  0.027641  0.095351     16.000000
  0.110565  0.027641  0.095351      8.000000
  0.055282  0.055282  0.095351      8.000000
  0.082924  0.055282  0.095351     16.000000
  0.110565  0.055282  0.095351      8.000000
  0.082924  0.082924  0.095351      8.000000
  0.110565  0.082924  0.095351      8.000000
  0.110565  0.110565  0.095351      2.000000
  0.000000  0.000000  0.127135      2.000000
  0.027641  0.000000  0.127135      8.000000
  0.055282  0.000000  0.127135      8.000000
  0.082924  0.000000  0.127135      8.000000
  0.110565  0.000000  0.127135      4.000000
  0.027641  0.027641  0.127135      8.000000
  0.055282  0.027641  0.127135     16.000000
  0.082924  0.027641  0.127135     16.000000
  0.110565  0.027641  0.127135      8.000000
  0.055282  0.055282  0.127135      8.000000
  0.082924  0.055282  0.127135     16.000000
  0.110565  0.055282  0.127135      8.000000
  0.082924  0.082924  0.127135      8.000000
  0.110565  0.082924  0.127135      8.000000
  0.110565  0.110565  0.127135      2.000000
  0.000000  0.000000  0.158918      1.000000
  0.027641  0.000000  0.158918      4.000000
  0.055282  0.000000  0.158918      4.000000
  0.082924  0.000000  0.158918      4.000000
  0.110565  0.000000  0.158918      2.000000
  0.027641  0.027641  0.158918      4.000000
  0.055282  0.027641  0.158918      8.000000
  0.082924  0.027641  0.158918      8.000000
  0.110565  0.027641  0.158918      4.000000
  0.055282  0.055282  0.158918      4.000000
  0.082924  0.055282  0.158918      8.000000
  0.110565  0.055282  0.158918      4.000000
  0.082924  0.082924  0.158918      4.000000
  0.110565  0.082924  0.158918      4.000000
  0.110565  0.110565  0.158918      1.000000
 


--------------------------------------------------------------------------------------------------------




 Dimension of arrays:
   k-points           NKPTS =     90   k-points in BZ     NKDIM =     90   number of bands    NBANDS=     36
   number of dos      NEDOS =    301   number of ions     NIONS =      6
   non local maximal  LDIM  =      6   non local SUM 2l+1 LMDIM =     18
   total plane-waves  NPLWV =  31104
   max r-space proj   IRMAX =      1   max aug-charges    IRDMAX= 155006
   dimension x,y,z NGX =    36 NGY =   36 NGZ =   24
   dimension x,y,z NGXF=    72 NGYF=   72 NGZF=   48
   support grid    NGXF=   144 NGYF=  144 NGZF=   96
   ions per type =               2   4
   NGX,Y,Z   is equivalent  to a cutoff of  13.23, 13.23, 12.68 a.u.
   NGXF,Y,Z  is equivalent  to a cutoff of  26.47, 26.47, 25.36 a.u.

 SYSTEM =  pddmc                                   
 POSCAR =  Pd O                                    

 Startparameter for this run:
   NWRITE =      2    write-flag & timer
   PREC   = accura    normal or accurate (medium, high low for compatibility)
   ISTART =      0    job   : 0-new  1-cont  2-samecut
   ICHARG =      2    charge: 1-file 2-atom 10-const
   ISPIN  =      2    spin polarized calculation?
   LNONCOLLINEAR =      F non collinear calculations
   LSORBIT =      F    spin-orbit coupling
   INIWAV =      1    electr: 0-lowe 1-rand  2-diag
   LASPH  =      T    aspherical Exc in radial PAW
 Electronic Relaxation 1
   ENCUT  =  520.0 eV  38.22 Ry    6.18 a.u.   8.41  8.41  5.85*2*pi/ulx,y,z
   ENINI  =  520.0     initial cutoff
   ENAUG  =  605.4 eV  augmentation charge cutoff
   NELM   =    200;   NELMIN=  5; NELMDL= -5     # of ELM steps 
   EDIFF  = 0.1E-05   stopping-criterion for ELM
   LREAL  =      F    real-space projection
   NLSPLINE    = F    spline interpolate recip. space projectors
   LCOMPAT=      F    compatible to vasp.4.4
   GGA_COMPAT  = T    GGA compatible to vasp.4.4-vasp.4.6
   LMAXPAW     = -100 max onsite density
   LMAXMIX     =    2 max onsite mixed and CHGCAR
   VOSKOWN=      0    Vosko Wilk Nusair interpolation
   ROPT   =    0.00000   0.00000
 Ionic relaxation
   EDIFFG = -.1E-01   stopping-criterion for IOM
   NSW    =      0    number of steps for IOM
   NBLOCK =      1;   KBLOCK =      1    inner block; outer block 
   IBRION =     -1    ionic relax: 0-MD 1-quasi-New 2-CG
   NFREE  =      0    steps in history (QN), initial steepest desc. (CG)
   ISIF   =      0    stress and relaxation
   IWAVPR =     10    prediction:  0-non 1-charg 2-wave 3-comb
   ISYM   =      2    0-nonsym 1-usesym 2-fastsym
   LCORR  =      T    Harris-Foulkes like correction to forces

   POTIM  = 0.5000    time-step for ionic-motion
   TEIN   =    0.0    initial temperature
   TEBEG  =    0.0;   TEEND  =   0.0 temperature during run
   SMASS  =  -3.00    Nose mass-parameter (am)
   estimated Nose-frequenzy (Omega)   =  0.10E-29 period in steps = 0.13E+47 mass=  -0.467E-27a.u.
   SCALEE = 1.0000    scale energy and forces
   NPACO  =    256;   APACO  = 10.0  distance and # of slots for P.C.
   PSTRESS=    0.0 pullay stress

  Mass of Ions in am
   POMASS = 106.42 16.00
  Ionic Valenz
   ZVAL   =  16.00  6.00
  Atomic Wigner-Seitz radii
   RWIGS  =  -1.00 -1.00
  virtual crystal weights 
   VCA    =   1.00  1.00
   NELECT =      56.0000    total number of electrons
   NUPDOWN=      -1.0000    fix difference up-down

 DOS related values:
   EMIN   =  10.00;   EMAX   =-10.00  energy-range for DOS
   EFERMI =   0.00;   METHOD = LEGACY      
   ISMEAR =     0;   SIGMA  =   0.05  broadening in eV -4-tet -1-fermi 0-gaus

 Electronic relaxation 2 (details)
   IALGO  =     38    algorithm
   LDIAG  =      T    sub-space diagonalisation (order eigenvalues)
   LSUBROT=      F    optimize rotation matrix (better conditioning)
   TURBO    =      0    0=normal 1=particle mesh
   IRESTART =      0    0=no restart 2=restart with 2 vectors
   NREBOOT  =      0    no. of reboots
   NMIN     =      0    reboot dimension
   EREF     =   0.00    reference energy to select bands
   IMIX   =      4    mixing-type and parameters
     AMIX     =   0.40;   BMIX     =  1.00
     AMIX_MAG =   1.60;   BMIX_MAG =  1.00
     AMIN     =   0.10
     WC   =   100.;   INIMIX=   1;  MIXPRE=   1;  MAXMIX= -45

 Intra band minimization:
   WEIMIN = 0.0000     energy-eigenvalue tresh-hold
   EBREAK =  0.69E-08  absolut break condition
   DEPER  =   0.30     relativ break condition  

   TIME   =   0.40     timestep for ELM

  volume/ion in A,a.u.               =      10.72        72.37
  Fermi-wavevector in a.u.,A,eV,Ry     =   1.563040  2.953718 33.240331  2.443095
  Thomas-Fermi vector in A             =   2.665870
 
 Write flags
   LWAVE        =      F    write WAVECAR
   LDOWNSAMPLE  =      F    k-point downsampling of WAVECAR
   LCHARG       =      F    write CHGCAR
   LVTOT        =      F    write LOCPOT, total local potential
   LVHAR        =      F    write LOCPOT, Hartree potential only
   WRT_POTENTIAL= false  ! write potential to hdf5 file
   LELF         =      F    write electronic localiz. function (ELF)
   LORBIT       =     11    0 simple, 1 ext, 2 COOP (PROOUT), +10 PAW based schemes


 Dipole corrections
   LMONO      =      F    monopole corrections only (constant potential shift)
   LDIPOL     =      F    correct potential (dipole corrections)
   IDIPOL     =      0    1-x, 2-y, 3-z, 4-all directions 
   EPSILON    =  1.0000000 bulk dielectric constant
   LVACPOTAV  =      F  vacuum potentials using an averaging scheme for the charge density
   VACPOTFLAT =  0.1000000 required flatness to determine vacuum potential
 Exchange correlation treatment:
   GGA     = PE    functional components
   XC_C    = 1    coefficients multiplying the functional components
   LIBXC   =     F    Libxc                    
   VOSKOWN =     0    Vosko Wilk Nusair interpolation
   LHFCALC =     F    Hartree Fock is set to
   LHFONE  =     F    Hartree Fock one center treatment
   AEXX    =    0.0000 exact exchange contribution

 Parameters of functionals:
   PE:
     No parameter
 
 Van der Waals corrections
   IVDW    =    12    specifies the selected vdW correction

 Linear response parameters
   LEPSILON=     F    determine dielectric tensor
   LRPA    =     F    only Hartree local field effects (RPA)
   LNABLA  =     F    use nabla operator in PAW spheres
   LVEL    =     F    velocity operator in full k-point grid
   CSHIFT  =0.1000    complex shift for real part using Kramers Kronig
   OMEGAMAX=  -1.0    maximum frequency
   DEG_THRESHOLD= 0.2000000E-02 threshold for treating states as degnerate
   RTIME   =   -0.100 relaxation time in fs
  (WPLASMAI=    0.000 imaginary part of plasma frequency in eV, 0.658/RTIME)
   DFIELD  = 0.0000000 0.0000000 0.0000000 field for delta impulse in time
 
  Optional k-point grid parameters
   LKPOINTS_OPT  =     F    use optional k-point grid
   KPOINTS_OPT_MODE=     1    mode for optional k-point grid
 
 Orbital magnetization related:
   ORBITALMAG=     F  switch on orbital magnetization
   LCHIMAG   =     F  perturbation theory with respect to B field
   DQ        =  0.001000  dq finite difference perturbation B field
   LLRAUG    =     F  two centre corrections for induced B field
   LBONE     =     F  B-component reconstruction in AE one-centre
   LVGVCALC  =     T  calculate vGv susceptibility
   LVGVAPPL  =     F  apply vGv susceptibility instead of pGv for G=0

 Random number generation:
   RANDOM_GENERATOR = DEFAULT
   PCG_SEED         = not used


--------------------------------------------------------------------------------------------------------


 Static calculation
 charge density and potential will be updated during run
 spin polarized calculation
 Variant of blocked Davidson
 Davidson routine will perform the subspace rotation
 perform sub-space diagonalisation
    after iterative eigenvector-optimisation
 modified Broyden-mixing scheme, WC =      100.0
 initial mixing is a Kerker type mixing with AMIX =  0.4000 and BMIX =      1.0000
 Hartree-type preconditioning will be used
 using additional bands             8
 reciprocal scheme for non local part
 use partial core corrections
 calculate Harris-corrections to forces 
   (improved forces if not selfconsistent)
 use gradient corrections 
 use of overlap-Matrix (Vanderbilt PP)
 Gauss-broadening in eV      SIGMA  =   0.05


--------------------------------------------------------------------------------------------------------


  energy-cutoff  :      520.00
  volume of cell :       64.34
      direct lattice vectors                 reciprocal lattice vectors
     4.522230460  0.000000000  0.000000000     0.221129818 -0.000000000  0.000000000
     0.000000000  4.522230460  0.000000000     0.000000000  0.221129818  0.000000000
     0.000000000  0.000000000  3.146273630    -0.000000000 -0.000000000  0.317836310

  length of vectors
     4.522230460  4.522230460  3.146273630     0.221129818  0.221129818  0.317836310


 
 k-points in units of 2pi/SCALE and weight: Automatic mesh                          
   0.00000000  0.00000000  0.00000000       0.002
   0.02764123  0.00000000  0.00000000       0.006
   0.05528245  0.00000000  0.00000000       0.006
   0.08292368  0.00000000  0.00000000       0.006
   0.11056491  0.00000000  0.00000000       0.003
   0.02764123  0.02764123  0.00000000       0.006
   0.05528245  0.02764123  0.00000000       0.013
   0.08292368  0.02764123  0.00000000       0.013
   0.11056491  0.02764123  0.00000000       0.006
   0.05528245  0.05528245  0.00000000       0.006
   0.08292368  0.05528245  0.00000000       0.013
   0.11056491  0.05528245  0.00000000       0.006
   0.08292368  0.08292368  0.00000000       0.006
   0.11056491  0.08292368  0.00000000       0.006
   0.11056491  0.11056491  0.00000000       0.002
   0.00000000  0.00000000  0.03178363       0.003
   0.02764123  0.00000000  0.03178363       0.013
   0.05528245  0.00000000  0.03178363       0.013
   0.08292368  0.00000000  0.03178363       0.013
   0.11056491  0.00000000  0.03178363       0.006
   0.02764123  0.02764123  0.03178363       0.013
   0.05528245  0.02764123  0.03178363       0.025
   0.08292368  0.02764123  0.03178363       0.025
   0.11056491  0.02764123  0.03178363       0.013
   0.05528245  0.05528245  0.03178363       0.013
   0.08292368  0.05528245  0.03178363       0.025
   0.11056491  0.05528245  0.03178363       0.013
   0.08292368  0.08292368  0.03178363       0.013
   0.11056491  0.08292368  0.03178363       0.013
   0.11056491  0.11056491  0.03178363       0.003
   0.00000000  0.00000000  0.06356726       0.003
   0.02764123  0.00000000  0.06356726       0.013
   0.05528245  0.00000000  0.06356726       0.013
   0.08292368  0.00000000  0.06356726       0.013
   0.11056491  0.00000000  0.06356726       0.006
   0.02764123  0.02764123  0.06356726       0.013
   0.05528245  0.02764123  0.06356726       0.025
   0.08292368  0.02764123  0.06356726       0.025
   0.11056491  0.02764123  0.06356726       0.013
   0.05528245  0.05528245  0.06356726       0.013
   0.08292368  0.05528245  0.06356726       0.025
   0.11056491  0.05528245  0.06356726       0.013
   0.08292368  0.08292368  0.06356726       0.013
   0.11056491  0.08292368  0.06356726       0.013
   0.11056491  0.11056491  0.06356726       0.003
   0.00000000  0.00000000  0.09535089       0.003
   0.02764123  0.00000000  0.09535089       0.013
   0.05528245  0.00000000  0.09535089       0.013
   0.08292368  0.00000000  0.09535089       0.013
   0.11056491  0.00000000  0.09535089       0.006
   0.02764123  0.02764123  0.09535089       0.013
   0.05528245  0.02764123  0.09535089       0.025
   0.08292368  0.02764123  0.09535089       0.025
   0.11056491  0.02764123  0.09535089       0.013
   0.05528245  0.05528245  0.09535089       0.013
   0.08292368  0.05528245  0.09535089       0.025
   0.11056491  0.05528245  0.09535089       0.013
   0.08292368  0.08292368  0.09535089       0.013
   0.11056491  0.08292368  0.09535089       0.013
   0.11056491  0.11056491  0.09535089       0.003
   0.00000000  0.00000000  0.12713452       0.003
   0.02764123  0.00000000  0.12713452       0.013
   0.05528245  0.00000000  0.12713452       0.013
   0.08292368  0.00000000  0.12713452       0.013
   0.11056491  0.00000000  0.12713452       0.006
   0.02764123  0.02764123  0.12713452       0.013
   0.05528245  0.02764123  0.12713452       0.025
   0.08292368  0.02764123  0.12713452       0.025
   0.11056491  0.02764123  0.12713452       0.013
   0.05528245  0.05528245  0.12713452       0.013
   0.08292368  0.05528245  0.12713452       0.025
   0.11056491  0.05528245  0.12713452       0.013
   0.08292368  0.08292368  0.12713452       0.013
   0.11056491  0.08292368  0.12713452       0.013
   0.11056491  0.11056491  0.12713452       0.003
   0.00000000  0.00000000  0.15891815       0.002
   0.02764123  0.00000000  0.15891815       0.006
   0.05528245  0.00000000  0.15891815       0.006
   0.08292368  0.00000000  0.15891815       0.006
   0.11056491  0.00000000  0.15891815       0.003
   0.02764123  0.02764123  0.15891815       0.006
   0.05528245  0.02764123  0.15891815       0.013
   0.08292368  0.02764123  0.15891815       0.013
   0.11056491  0.02764123  0.15891815       0.006
   0.05528245  0.05528245  0.15891815       0.006
   0.08292368  0.05528245  0.15891815       0.013
   0.11056491  0.05528245  0.15891815       0.006
   0.08292368  0.08292368  0.15891815       0.006
   0.11056491  0.08292368  0.15891815       0.006
   0.11056491  0.11056491  0.15891815       0.002
 
 k-points in reciprocal lattice and weights: Automatic mesh                          
   0.00000000  0.00000000  0.00000000       0.002
   0.12500000  0.00000000  0.00000000       0.006
   0.25000000  0.00000000  0.00000000       0.006
   0.37500000  0.00000000  0.00000000       0.006
   0.50000000  0.00000000  0.00000000       0.003
   0.12500000  0.12500000  0.00000000       0.006
   0.25000000  0.12500000  0.00000000       0.013
   0.37500000  0.12500000  0.00000000       0.013
   0.50000000  0.12500000  0.00000000       0.006
   0.25000000  0.25000000  0.00000000       0.006
   0.37500000  0.25000000  0.00000000       0.013
   0.50000000  0.25000000  0.00000000       0.006
   0.37500000  0.37500000  0.00000000       0.006
   0.50000000  0.37500000  0.00000000       0.006
   0.50000000  0.50000000  0.00000000       0.002
   0.00000000  0.00000000  0.10000000       0.003
   0.12500000  0.00000000  0.10000000       0.013
   0.25000000  0.00000000  0.10000000       0.013
   0.37500000  0.00000000  0.10000000       0.013
   0.50000000  0.00000000  0.10000000       0.006
   0.12500000  0.12500000  0.10000000       0.013
   0.25000000  0.12500000  0.10000000       0.025
   0.37500000  0.12500000  0.10000000       0.025
   0.50000000  0.12500000  0.10000000       0.013
   0.25000000  0.25000000  0.10000000       0.013
   0.37500000  0.25000000  0.10000000       0.025
   0.50000000  0.25000000  0.10000000       0.013
   0.37500000  0.37500000  0.10000000       0.013
   0.50000000  0.37500000  0.10000000       0.013
   0.50000000  0.50000000  0.10000000       0.003
   0.00000000  0.00000000  0.20000000       0.003
   0.12500000  0.00000000  0.20000000       0.013
   0.25000000  0.00000000  0.20000000       0.013
   0.37500000  0.00000000  0.20000000       0.013
   0.50000000  0.00000000  0.20000000       0.006
   0.12500000  0.12500000  0.20000000       0.013
   0.25000000  0.12500000  0.20000000       0.025
   0.37500000  0.12500000  0.20000000       0.025
   0.50000000  0.12500000  0.20000000       0.013
   0.25000000  0.25000000  0.20000000       0.013
   0.37500000  0.25000000  0.20000000       0.025
   0.50000000  0.25000000  0.20000000       0.013
   0.37500000  0.37500000  0.20000000       0.013
   0.50000000  0.37500000  0.20000000       0.013
   0.50000000  0.50000000  0.20000000       0.003
   0.00000000  0.00000000  0.30000000       0.003
   0.12500000  0.00000000  0.30000000       0.013
   0.25000000  0.00000000  0.30000000       0.013
   0.37500000  0.00000000  0.30000000       0.013
   0.50000000  0.00000000  0.30000000       0.006
   0.12500000  0.12500000  0.30000000       0.013
   0.25000000  0.12500000  0.30000000       0.025
   0.37500000  0.12500000  0.30000000       0.025
   0.50000000  0.12500000  0.30000000       0.013
   0.25000000  0.25000000  0.30000000       0.013
   0.37500000  0.25000000  0.30000000       0.025
   0.50000000  0.25000000  0.30000000       0.013
   0.37500000  0.37500000  0.30000000       0.013
   0.50000000  0.37500000  0.30000000       0.013
   0.50000000  0.50000000  0.30000000       0.003
   0.00000000  0.00000000  0.40000000       0.003
   0.12500000  0.00000000  0.40000000       0.013
   0.25000000  0.00000000  0.40000000       0.013
   0.37500000  0.00000000  0.40000000       0.013
   0.50000000  0.00000000  0.40000000       0.006
   0.12500000  0.12500000  0.40000000       0.013
   0.25000000  0.12500000  0.40000000       0.025
   0.37500000  0.12500000  0.40000000       0.025
   0.50000000  0.12500000  0.40000000       0.013
   0.25000000  0.25000000  0.40000000       0.013
   0.37500000  0.25000000  0.40000000       0.025
   0.50000000  0.25000000  0.40000000       0.013
   0.37500000  0.37500000  0.40000000       0.013
   0.50000000  0.37500000  0.40000000       0.013
   0.50000000  0.50000000  0.40000000       0.003
   0.00000000  0.00000000  0.50000000       0.002
   0.12500000  0.00000000  0.50000000       0.006
   0.25000000  0.00000000  0.50000000       0.006
   0.37500000  0.00000000  0.50000000       0.006
   0.50000000  0.00000000  0.50000000       0.003
   0.12500000  0.12500000  0.50000000       0.006
   0.25000000  0.12500000  0.50000000       0.013
   0.37500000  0.12500000  0.50000000       0.013
   0.50000000  0.12500000  0.50000000       0.006
   0.25000000  0.25000000  0.50000000       0.006
   0.37500000  0.25000000  0.50000000       0.013
   0.50000000  0.25000000  0.50000000       0.006
   0.37500000  0.37500000  0.50000000       0.006
   0.50000000  0.37500000  0.50000000       0.006
   0.50000000  0.50000000  0.50000000       0.002
 
 position of ions in fractional coordinates (direct lattice) 
   0.50000000  0.50000000  0.50000000
   0.00000000  0.00000000  0.00000000
   0.80815192  0.19184808  0.50000000
   0.19184808  0.80815192  0.50000000
   0.30815192  0.30815192  0.00000000
   0.69184808  0.69184808  0.00000000
 
 position of ions in cartesian coordinates  (Angst):
   2.26111523  2.26111523  1.57313682
   0.00000000  0.00000000  0.00000000
   3.65464923  0.86758123  1.57313682
   0.86758123  3.65464923  1.57313682
   1.39353400  1.39353400  0.00000000
   3.12869646  3.12869646  0.00000000
 


--------------------------------------------------------------------------------------------------------


 k-point     1 :   0.0000 0.0000 0.0000  plane waves:    1751
 k-point     2 :   0.1250 0.0000 0.0000  plane waves:    1743
 k-point     3 :   0.2500 0.0000 0.0000  plane waves:    1729
 k-point     4 :   0.3750 0.0000 0.0000  plane waves:    1733
 k-point     5 :   0.5000 0.0000 0.0000  plane waves:    1740
 k-point     6 :   0.1250 0.1250 0.0000  plane waves:    1742
 k-point     7 :   0.2500 0.1250 0.0000  plane waves:    1737
 k-point     8 :   0.3750 0.1250 0.0000  plane waves:    1723
 k-point     9 :   0.5000 0.1250 0.0000  plane waves:    1732
 k-point    10 :   0.2500 0.2500 0.0000  plane waves:    1732
 k-point    11 :   0.3750 0.2500 0.0000  plane waves:    1725
 k-point    12 :   0.5000 0.2500 0.0000  plane waves:    1718
 k-point    13 :   0.3750 0.3750 0.0000  plane waves:    1722
 k-point    14 :   0.5000 0.3750 0.0000  plane waves:    1718
 k-point    15 :   0.5000 0.5000 0.0000  plane waves:    1720
 k-point    16 :   0.0000 0.0000 0.1000  plane waves:    1735
 k-point    17 :   0.1250 0.0000 0.1000  plane waves:    1730
 k-point    18 :   0.2500 0.0000 0.1000  plane waves:    1730
 k-point    19 :   0.3750 0.0000 0.1000  plane waves:    1728
 k-point    20 :   0.5000 0.0000 0.1000  plane waves:    1726
 k-point    21 :   0.1250 0.1250 0.1000  plane waves:    1736
 k-point    22 :   0.2500 0.1250 0.1000  plane waves:    1729
 k-point    23 :   0.3750 0.1250 0.1000  plane waves:    1725
 k-point    24 :   0.5000 0.1250 0.1000  plane waves:    1728
 k-point    25 :   0.2500 0.2500 0.1000  plane waves:    1733
 k-point    26 :   0.3750 0.2500 0.1000  plane waves:    1726
 k-point    27 :   0.5000 0.2500 0.1000  plane waves:    1728
 k-point    28 :   0.3750 0.3750 0.1000  plane waves:    1725
 k-point    29 :   0.5000 0.3750 0.1000  plane waves:    1720
 k-point    30 :   0.5000 0.5000 0.1000  plane waves:    1720
 k-point    31 :   0.0000 0.0000 0.2000  plane waves:    1720
 k-point    32 :   0.1250 0.0000 0.2000  plane waves:    1727
 k-point    33 :   0.2500 0.0000 0.2000  plane waves:    1732
 k-point    34 :   0.3750 0.0000 0.2000  plane waves:    1733
 k-point    35 :   0.5000 0.0000 0.2000  plane waves:    1728
 k-point    36 :   0.1250 0.1250 0.2000  plane waves:    1723
 k-point    37 :   0.2500 0.1250 0.2000  plane waves:    1733
 k-point    38 :   0.3750 0.1250 0.2000  plane waves:    1734
 k-point    39 :   0.5000 0.1250 0.2000  plane waves:    1726
 k-point    40 :   0.2500 0.2500 0.2000  plane waves:    1733
 k-point    41 :   0.3750 0.2500 0.2000  plane waves:    1734
 k-point    42 :   0.5000 0.2500 0.2000  plane waves:    1734
 k-point    43 :   0.3750 0.3750 0.2000  plane waves:    1725
 k-point    44 :   0.5000 0.3750 0.2000  plane waves:    1724
 k-point    45 :   0.5000 0.5000 0.2000  plane waves:    1736
 k-point    46 :   0.0000 0.0000 0.3000  plane waves:    1724
 k-point    47 :   0.1250 0.0000 0.3000  plane waves:    1734
 k-point    48 :   0.2500 0.0000 0.3000  plane waves:    1741
 k-point    49 :   0.3750 0.0000 0.3000  plane waves:    1736
 k-point    50 :   0.5000 0.0000 0.3000  plane waves:    1736
 k-point    51 :   0.1250 0.1250 0.3000  plane waves:    1738
 k-point    52 :   0.2500 0.1250 0.3000  plane waves:    1734
 k-point    53 :   0.3750 0.1250 0.3000  plane waves:    1741
 k-point    54 :   0.5000 0.1250 0.3000  plane waves:    1736
 k-point    55 :   0.2500 0.2500 0.3000  plane waves:    1733
 k-point    56 :   0.3750 0.2500 0.3000  plane waves:    1736
 k-point    57 :   0.5000 0.2500 0.3000  plane waves:    1732
 k-point    58 :   0.3750 0.3750 0.3000  plane waves:    1728
 k-point    59 :   0.5000 0.3750 0.3000  plane waves:    1728
 k-point    60 :   0.5000 0.5000 0.3000  plane waves:    1728
 k-point    61 :   0.0000 0.0000 0.4000  plane waves:    1756
 k-point    62 :   0.1250 0.0000 0.4000  plane waves:    1743
 k-point    63 :   0.2500 0.0000 0.4000  plane waves:    1747
 k-point    64 :   0.3750 0.0000 0.4000  plane waves:    1738
 k-point    65 :   0.5000 0.0000 0.4000  plane waves:    1744
 k-point    66 :   0.1250 0.1250 0.4000  plane waves:    1735
 k-point    67 :   0.2500 0.1250 0.4000  plane waves:    1742
 k-point    68 :   0.3750 0.1250 0.4000  plane waves:    1741
 k-point    69 :   0.5000 0.1250 0.4000  plane waves:    1736
 k-point    70 :   0.2500 0.2500 0.4000  plane waves:    1733
 k-point    71 :   0.3750 0.2500 0.4000  plane waves:    1731
 k-point    72 :   0.5000 0.2500 0.4000  plane waves:    1732
 k-point    73 :   0.3750 0.3750 0.4000  plane waves:    1729
 k-point    74 :   0.5000 0.3750 0.4000  plane waves:    1726
 k-point    75 :   0.5000 0.5000 0.4000  plane waves:    1736
 k-point    76 :   0.0000 0.0000 0.5000  plane waves:    1740
 k-point    77 :   0.1250 0.0000 0.5000  plane waves:    1740
 k-point    78 :   0.2500 0.0000 0.5000  plane waves:    1740
 k-point    79 :   0.3750 0.0000 0.5000  plane waves:    1744
 k-point    80 :   0.5000 0.0000 0.5000  plane waves:    1732
 k-point    81 :   0.1250 0.1250 0.5000  plane waves:    1736
 k-point    82 :   0.2500 0.1250 0.5000  plane waves:    1744
 k-point    83 :   0.3750 0.1250 0.5000  plane waves:    1732
 k-point    84 :   0.5000 0.1250 0.5000  plane waves:    1744
 k-point    85 :   0.2500 0.2500 0.5000  plane waves:    1736
 k-point    86 :   0.3750 0.2500 0.5000  plane waves:    1722
 k-point    87 :   0.5000 0.2500 0.5000  plane waves:    1736
 k-point    88 :   0.3750 0.3750 0.5000  plane waves:    1730
 k-point    89 :   0.5000 0.3750 0.5000  plane waves:    1728
 k-point    90 :   0.5000 0.5000 0.5000  plane waves:    1728

 maximum and minimum number of plane-waves per node :      1756     1718

 maximum number of plane-waves:      1756
 maximum index in each direction: 
   IXMAX=    8   IYMAX=    8   IZMAX=    5
   IXMIN=   -8   IYMIN=   -8   IZMIN=   -6


 serial   3D FFT for wavefunctions
 parallel 3D FFT for charge:
    minimum data exchange during FFTs selected (reduces bandwidth)


 total amount of memory used by VASP MPI-rank0   140217. kBytes
=======================================================================

   base      :      30000. kBytes
   nonl-proj :      45684. kBytes
   fftplans  :       9397. kBytes
   grid      :       7672. kBytes
   one-center:        186. kBytes
   wavefun   :      47278. kBytes
 
     INWAV:  cpu time      0.0000: real time      0.0001
 Broyden mixing: mesh for mixing (old mesh)
   NGX = 17   NGY = 17   NGZ = 11
  (NGX  = 72   NGY  = 72   NGZ  = 48)
  gives a total of   3179 points

 initial charge density was supplied:
 charge density of overlapping atoms calculated
 number of electron      56.0000000 magnetization       6.0000000
 keeping initial charge density in first step


--------------------------------------------------------------------------------------------------------


 Maximum index for augmentation-charges         37643 (set IRDMAX)


--------------------------------------------------------------------------------------------------------


 First call to EWALD:  gamma=   0.442
 Maximum number of real-space cells 2x 2x 3
 Maximum number of reciprocal cells 3x 3x 2

    FEWALD:  cpu time      0.0004: real time      0.0004


--------------------------------------- Ionic step        1  -------------------------------------------




--------------------------------------- Iteration      1(   1)  ---------------------------------------


    POTLOK:  cpu time      0.0477: real time      0.0477
    SETDIJ:  cpu time      0.7199: real time      0.7199
     EDDAV:  cpu time      7.8908: real time      7.9563
       DOS:  cpu time      0.0010: real time      0.0010
    --------------------------------------------
      LOOP:  cpu time      8.6593: real time      8.7249

 eigenvalue-minimisations  : 13456
 total energy-change (2. order) : 0.5890553E+03  (-0.3426411E+04)
 number of electron      56.0000000 magnetization       6.0000000
 augmentation part       56.0000000 magnetization       6.0000000

 Free energy of the ion-electron system (eV)
  ---------------------------------------------------
  alpha Z        PSCENC =       302.45619847
  Ewald energy   TEWEN  =     -5214.09126118
  -Hartree energ DENC   =     -1860.07067583
  -exchange      EXHF   =         0.00000000
  -V(xc)+E(xc)   XCENC  =       277.13147676
  PAW double counting   =      5901.46612542    -5850.99266113
  entropy T*S    EENTRO =        -0.00148239
  eigenvalues    EBANDS =        60.63321505
  atomic energy  EATOM  =      6972.52437674
  Solvation  Ediel_sol  =         0.00000000
  ---------------------------------------------------
  free energy    TOTEN  =       589.05531190 eV

  energy without entropy =      589.05679429  energy(sigma->0) =      589.05605309


--------------------------------------------------------------------------------------------------------




--------------------------------------- Iteration      1(   2)  ---------------------------------------


     EDDAV:  cpu time      7.3860: real time      7.6697
       DOS:  cpu time      0.0008: real time      0.0008
    --------------------------------------------
      LOOP:  cpu time      7.3868: real time      7.6705

 eigenvalue-minimisations  : 14980
 total energy-change (2. order) :-0.5967190E+03  (-0.5750481E+03)
 number of electron      56.0000000 magnetization       6.0000000
 augmentation part       56.0000000 magnetization       6.0000000

 Free energy of the ion-electron system (eV)
  ---------------------------------------------------
  alpha Z        PSCENC =       302.45619847
  Ewald energy   TEWEN  =     -5214.09126118
  -Hartree energ DENC   =     -1860.07067583
  -exchange      EXHF   =         0.00000000
  -V(xc)+E(xc)   XCENC  =       277.13147676
  PAW double counting   =      5901.46612542    -5850.99266113
  entropy T*S    EENTRO =        -0.00257209
  eigenvalues    EBANDS =      -536.08466917
  atomic energy  EATOM  =      6972.52437674
  Solvation  Ediel_sol  =         0.00000000
  ---------------------------------------------------
  free energy    TOTEN  =        -7.66366202 eV

  energy without entropy =       -7.66108993  energy(sigma->0) =       -7.66237597


--------------------------------------------------------------------------------------------------------




--------------------------------------- Iteration      1(   3)  ---------------------------------------


     EDDAV:  cpu time      7.2565: real time      7.2580
       DOS:  cpu time      0.0008: real time      0.0008
    --------------------------------------------
      LOOP:  cpu time      7.2573: real time      7.2588

 eigenvalue-minimisations  : 14188
 total energy-change (2. order) :-0.3290480E+02  (-0.3254659E+02)
 number of electron      56.0000000 magnetization       6.0000000
 augmentation part       56.0000000 magnetization       6.0000000

 Free energy of the ion-electron system (eV)
  ---------------------------------------------------
  alpha Z        PSCENC =       302.45619847
  Ewald energy   TEWEN  =     -5214.09126118
  -Hartree energ DENC   =     -1860.07067583
  -exchange      EXHF   =         0.00000000
  -V(xc)+E(xc)   XCENC  =       277.13147676
  PAW double counting   =      5901.46612542    -5850.99266113
  entropy T*S    EENTRO =        -0.00352820
  eigenvalues    EBANDS =      -568.98850986
  atomic energy  EATOM  =      6972.52437674
  Solvation  Ediel_sol  =         0.00000000
  ---------------------------------------------------
  free energy    TOTEN  =       -40.56845882 eV

  energy without entropy =      -40.56493062  energy(sigma->0) =      -40.56669472


--------------------------------------------------------------------------------------------------------




--------------------------------------- Iteration      1(   4)  ---------------------------------------


     EDDAV:  cpu time      8.2555: real time      8.2558
       DOS:  cpu time      0.0009: real time      0.0009
    --------------------------------------------
      LOOP:  cpu time      8.2563: real time      8.2566

 eigenvalue-minimisations  : 14312
 total energy-change (2. order) :-0.4239964E+00  (-0.4233672E+00)
 number of electron      56.0000000 magnetization       6.0000000
 augmentation part       56.0000000 magnetization       6.0000000

 Free energy of the ion-electron system (eV)
  ---------------------------------------------------
  alpha Z        PSCENC =       302.45619847
  Ewald energy   TEWEN  =     -5214.09126118
  -Hartree energ DENC   =     -1860.07067583
  -exchange      EXHF   =         0.00000000
  -V(xc)+E(xc)   XCENC  =       277.13147676
  PAW double counting   =      5901.46612542    -5850.99266113
  entropy T*S    EENTRO =        -0.00345865
  eigenvalues    EBANDS =      -569.41257577
  atomic energy  EATOM  =      6972.52437674
  Solvation  Ediel_sol  =         0.00000000
  ---------------------------------------------------
  free energy    TOTEN  =       -40.99245518 eV

  energy without entropy =      -40.98899653  energy(sigma->0) =      -40.99072586


--------------------------------------------------------------------------------------------------------




--------------------------------------- Iteration      1(   5)  ---------------------------------------


     EDDAV:  cpu time      6.6256: real time      6.6261
       DOS:  cpu time      0.0008: real time      0.0008
    CHARGE:  cpu time      0.5150: real time      0.5157
    MIXING:  cpu time      0.0014: real time      0.0014
    --------------------------------------------
      LOOP:  cpu time      7.1427: real time      7.1439

 eigenvalue-minimisations  : 13892
 total energy-change (2. order) :-0.4811739E-02  (-0.4811264E-02)
 number of electron      56.0000002 magnetization       0.1087725
 augmentation part       16.7790725 magnetization      -0.0521236

 Broyden mixing:
  rms(total) = 0.28085E+01    rms(broyden)= 0.28080E+01
  rms(prec ) = 0.53279E+01
  weight for this iteration     100.00

 Free energy of the ion-electron system (eV)
  ---------------------------------------------------
  alpha Z        PSCENC =       302.45619847
  Ewald energy   TEWEN  =     -5214.09126118
  -Hartree energ DENC   =     -1860.07067583
  -exchange      EXHF   =         0.00000000
  -V(xc)+E(xc)   XCENC  =       277.13147676
  PAW double counting   =      5901.46612542    -5850.99266113
  entropy T*S    EENTRO =        -0.00345716
  eigenvalues    EBANDS =      -569.41738900
  atomic energy  EATOM  =      6972.52437674
  Solvation  Ediel_sol  =         0.00000000
  ---------------------------------------------------
  free energy    TOTEN  =       -40.99726692 eV

  energy without entropy =      -40.99380976  energy(sigma->0) =      -40.99553834


--------------------------------------------------------------------------------------------------------




--------------------------------------- Iteration      1(   6)  ---------------------------------------


    POTLOK:  cpu time      0.0471: real time      0.0472
    SETDIJ:  cpu time      0.5958: real time      0.5961
     EDDAV:  cpu time      6.2284: real time      6.2315
       DOS:  cpu time      0.0009: real time      0.0009
    CHARGE:  cpu time      0.5292: real time      0.5292
    MIXING:  cpu time      0.0015: real time      0.0015
    --------------------------------------------
      LOOP:  cpu time      7.4029: real time      7.4064

 eigenvalue-minimisations  : 13924
 total energy-change (2. order) : 0.5374038E+01  (-0.5164966E+01)
 number of electron      56.0000002 magnetization      -0.2675025
 augmentation part       18.3608540 magnetization       0.0238186

 Broyden mixing:
  rms(total) = 0.15546E+01    rms(broyden)= 0.15538E+01
  rms(prec ) = 0.33477E+01
  weight for this iteration     100.00

 eigenvalues of (default mixing * dielectric matrix)
  average eigenvalue GAMMA=   0.7318
  0.7318

 Free energy of the ion-electron system (eV)
  ---------------------------------------------------
  alpha Z        PSCENC =       302.45619847
  Ewald energy   TEWEN  =     -5214.09126118
  -Hartree energ DENC   =     -1784.50795204
  -exchange      EXHF   =         0.00000000
  -V(xc)+E(xc)   XCENC  =       276.15771011
  PAW double counting   =      6061.01001480    -6024.83728024
  entropy T*S    EENTRO =        -0.00953795
  eigenvalues    EBANDS =      -624.32549751
  atomic energy  EATOM  =      6972.52437674
  Solvation  Ediel_sol  =         0.00000000
  ---------------------------------------------------
  free energy    TOTEN  =       -35.62322882 eV

  energy without entropy =      -35.61369087  energy(sigma->0) =      -35.61845984


--------------------------------------------------------------------------------------------------------




--------------------------------------- Iteration      1(   7)  ---------------------------------------


    POTLOK:  cpu time      0.0462: real time      0.0463
    SETDIJ:  cpu time      0.5842: real time      0.5842
     EDDAV:  cpu time      6.0156: real time      6.0166
       DOS:  cpu time      0.0009: real time      0.0009
    CHARGE:  cpu time      0.5243: real time      0.5249
    MIXING:  cpu time      0.0014: real time      0.0014
    --------------------------------------------
      LOOP:  cpu time      7.1724: real time      7.1742

 eigenvalue-minimisations  : 13640
 total energy-change (2. order) : 0.3428809E+01  (-0.1546197E+01)
 number of electron      56.0000002 magnetization      -0.3222481
 augmentation part       17.4121745 magnetization      -0.1705001

 Broyden mixing:
  rms(total) = 0.53636E+00    rms(broyden)= 0.53618E+00
  rms(prec ) = 0.83822E+00
  weight for this iteration     100.00

 eigenvalues of (default mixing * dielectric matrix)
  average eigenvalue GAMMA=   0.7287
  0.9215  0.5358

 Free energy of the ion-electron system (eV)
  ---------------------------------------------------
  alpha Z        PSCENC =       302.45619847
  Ewald energy   TEWEN  =     -5214.09126118
  -Hartree energ DENC   =     -1819.65124024
  -exchange      EXHF   =         0.00000000
  -V(xc)+E(xc)   XCENC  =       276.57764120
  PAW double counting   =      6242.46706382    -6203.95353046
  entropy T*S    EENTRO =        -0.00555296
  eigenvalues    EBANDS =      -588.51811518
  atomic energy  EATOM  =      6972.52437674
  Solvation  Ediel_sol  =         0.00000000
  ---------------------------------------------------
  free energy    TOTEN  =       -32.19441980 eV

  energy without entropy =      -32.18886684  energy(sigma->0) =      -32.19164332


--------------------------------------------------------------------------------------------------------




--------------------------------------- Iteration      1(   8)  ---------------------------------------


    POTLOK:  cpu time      0.0460: real time      0.0461
    SETDIJ:  cpu time      0.5824: real time      0.5824
     EDDAV:  cpu time      6.0759: real time      6.0769
       DOS:  cpu time      0.0009: real time      0.0009
    CHARGE:  cpu time      0.5180: real time      0.5181
    MIXING:  cpu time      0.0014: real time      0.0014
    --------------------------------------------
      LOOP:  cpu time      7.2245: real time      7.2257

 eigenvalue-minimisations  : 13740
 total energy-change (2. order) : 0.5099246E-01  (-0.1277067E+00)
 number of electron      56.0000002 magnetization      -0.2344198
 augmentation part       17.5367223 magnetization      -0.0855584

 Broyden mixing:
  rms(total) = 0.29990E+00    rms(broyden)= 0.29989E+00
  rms(prec ) = 0.41402E+00
  weight for this iteration     100.00

 eigenvalues of (default mixing * dielectric matrix)
  average eigenvalue GAMMA=   1.0428
  0.5627  0.8835  1.6823

 Free energy of the ion-electron system (eV)
  ---------------------------------------------------
  alpha Z        PSCENC =       302.45619847
  Ewald energy   TEWEN  =     -5214.09126118
  -Hartree energ DENC   =     -1808.38518880
  -exchange      EXHF   =         0.00000000
  -V(xc)+E(xc)   XCENC  =       276.18901394
  PAW double counting   =      6362.76651312    -6326.52579108
  entropy T*S    EENTRO =        -0.00582282
  eigenvalues    EBANDS =      -597.07146572
  atomic energy  EATOM  =      6972.52437674
  Solvation  Ediel_sol  =         0.00000000
  ---------------------------------------------------
  free energy    TOTEN  =       -32.14342734 eV

  energy without entropy =      -32.13760452  energy(sigma->0) =      -32.14051593


--------------------------------------------------------------------------------------------------------




--------------------------------------- Iteration      1(   9)  ---------------------------------------


    POTLOK:  cpu time      0.0458: real time      0.0459
    SETDIJ:  cpu time      0.5822: real time      0.5826
     EDDAV:  cpu time      6.1592: real time      6.1624
       DOS:  cpu time      0.0009: real time      0.0009
    CHARGE:  cpu time      0.5237: real time      0.5237
    MIXING:  cpu time      0.0014: real time      0.0014
    --------------------------------------------
      LOOP:  cpu time      7.3132: real time      7.3169

 eigenvalue-minimisations  : 14092
 total energy-change (2. order) : 0.2489809E-01  (-0.1265318E-01)
 number of electron      56.0000002 magnetization      -0.2039860
 augmentation part       17.6114559 magnetization      -0.0728202

 Broyden mixing:
  rms(total) = 0.85582E-01    rms(broyden)= 0.85566E-01
  rms(prec ) = 0.15490E+00
  weight for this iteration     100.00

 eigenvalues of (default mixing * dielectric matrix)
  average eigenvalue GAMMA=   1.1324
  2.3379  0.8867  0.5829  0.7222

 Free energy of the ion-electron system (eV)
  ---------------------------------------------------
  alpha Z        PSCENC =       302.45619847
  Ewald energy   TEWEN  =     -5214.09126118
  -Hartree energ DENC   =     -1802.29267145
  -exchange      EXHF   =         0.00000000
  -V(xc)+E(xc)   XCENC  =       276.10515961
  PAW double counting   =      6548.74351713    -6514.75663370
  entropy T*S    EENTRO =        -0.00686942
  eigenvalues    EBANDS =      -600.80034543
  atomic energy  EATOM  =      6972.52437674
  Solvation  Ediel_sol  =         0.00000000
  ---------------------------------------------------
  free energy    TOTEN  =       -32.11852925 eV

  energy without entropy =      -32.11165983  energy(sigma->0) =      -32.11509454


--------------------------------------------------------------------------------------------------------




--------------------------------------- Iteration      1(  10)  ---------------------------------------


    POTLOK:  cpu time      0.0465: real time      0.0465
    SETDIJ:  cpu time      0.5868: real time      0.5869
     EDDAV:  cpu time      6.0489: real time      6.0512
       DOS:  cpu time      0.0009: real time      0.0009
    CHARGE:  cpu time      0.5192: real time      0.5192
    MIXING:  cpu time      0.0015: real time      0.0015
    --------------------------------------------
      LOOP:  cpu time      7.2037: real time      7.2061

 eigenvalue-minimisations  : 13836
 total energy-change (2. order) : 0.3303348E-02  (-0.1937907E-02)
 number of electron      56.0000002 magnetization      -0.1848641
 augmentation part       17.5814719 magnetization      -0.0761570

 Broyden mixing:
  rms(total) = 0.25656E-01    rms(broyden)= 0.25638E-01
  rms(prec ) = 0.35881E-01
  weight for this iteration     100.00

 eigenvalues of (default mixing * dielectric matrix)
  average eigenvalue GAMMA=   1.1282
  2.5161  1.0614  0.8523  0.6189  0.5924

 Free energy of the ion-electron system (eV)
  ---------------------------------------------------
  alpha Z        PSCENC =       302.45619847
  Ewald energy   TEWEN  =     -5214.09126118
  -Hartree energ DENC   =     -1803.19484429
  -exchange      EXHF   =         0.00000000
  -V(xc)+E(xc)   XCENC  =       276.12367523
  PAW double counting   =      6596.60642253    -6562.75763343
  entropy T*S    EENTRO =        -0.00674108
  eigenvalues    EBANDS =      -599.77541888
  atomic energy  EATOM  =      6972.52437674
  Solvation  Ediel_sol  =         0.00000000
  ---------------------------------------------------
  free energy    TOTEN  =       -32.11522590 eV

  energy without entropy =      -32.10848482  energy(sigma->0) =      -32.11185536


--------------------------------------------------------------------------------------------------------




--------------------------------------- Iteration      1(  11)  ---------------------------------------


    POTLOK:  cpu time      0.0465: real time      0.0466
    SETDIJ:  cpu time      0.5880: real time      0.5880
     EDDAV:  cpu time      6.0985: real time      6.1001
       DOS:  cpu time      0.0009: real time      0.0009
    CHARGE:  cpu time      0.5200: real time      0.5203
    MIXING:  cpu time      0.0015: real time      0.0015
    --------------------------------------------
      LOOP:  cpu time      7.2553: real time      7.2574

 eigenvalue-minimisations  : 13852
 total energy-change (2. order) :-0.2819219E-03  (-0.2064233E-03)
 number of electron      56.0000002 magnetization      -0.1657206
 augmentation part       17.5757430 magnetization      -0.0652170

 Broyden mixing:
  rms(total) = 0.12085E-01    rms(broyden)= 0.12076E-01
  rms(prec ) = 0.18315E-01
  weight for this iteration     100.00

 eigenvalues of (default mixing * dielectric matrix)
  average eigenvalue GAMMA=   1.1043
  2.4931  1.3243  0.8114  0.5656  0.7156  0.7156

 Free energy of the ion-electron system (eV)
  ---------------------------------------------------
  alpha Z        PSCENC =       302.45619847
  Ewald energy   TEWEN  =     -5214.09126118
  -Hartree energ DENC   =     -1803.74012553
  -exchange      EXHF   =         0.00000000
  -V(xc)+E(xc)   XCENC  =       276.13852848
  PAW double counting   =      6601.96123302    -6568.01768874
  entropy T*S    EENTRO =        -0.00663842
  eigenvalues    EBANDS =      -599.34013066
  atomic energy  EATOM  =      6972.52437674
  Solvation  Ediel_sol  =         0.00000000
  ---------------------------------------------------
  free energy    TOTEN  =       -32.11550783 eV

  energy without entropy =      -32.10886940  energy(sigma->0) =      -32.11218861


--------------------------------------------------------------------------------------------------------




--------------------------------------- Iteration      1(  12)  ---------------------------------------


    POTLOK:  cpu time      0.0464: real time      0.0465
    SETDIJ:  cpu time      0.5868: real time      0.5868
     EDDAV:  cpu time      6.0946: real time      6.0976
       DOS:  cpu time      0.0009: real time      0.0009
    CHARGE:  cpu time      0.5228: real time      0.5233
    MIXING:  cpu time      0.0015: real time      0.0015
    --------------------------------------------
      LOOP:  cpu time      7.2530: real time      7.2566

 eigenvalue-minimisations  : 13916
 total energy-change (2. order) :-0.1079416E-05  (-0.1663261E-04)
 number of electron      56.0000002 magnetization      -0.1470799
 augmentation part       17.5760230 magnetization      -0.0551057

 Broyden mixing:
  rms(total) = 0.58016E-02    rms(broyden)= 0.57957E-02
  rms(prec ) = 0.85061E-02
  weight for this iteration     100.00

 eigenvalues of (default mixing * dielectric matrix)
  average eigenvalue GAMMA=   1.2040
  2.4790  2.1802  0.9224  0.9224  0.5729  0.6756  0.6756

 Free energy of the ion-electron system (eV)
  ---------------------------------------------------
  alpha Z        PSCENC =       302.45619847
  Ewald energy   TEWEN  =     -5214.09126118
  -Hartree energ DENC   =     -1804.17604577
  -exchange      EXHF   =         0.00000000
  -V(xc)+E(xc)   XCENC  =       276.15806946
  PAW double counting   =      6602.60922991    -6568.55364514
  entropy T*S    EENTRO =        -0.00661033
  eigenvalues    EBANDS =      -599.03582106
  atomic energy  EATOM  =      6972.52437674
  Solvation  Ediel_sol  =         0.00000000
  ---------------------------------------------------
  free energy    TOTEN  =       -32.11550890 eV

  energy without entropy =      -32.10889857  energy(sigma->0) =      -32.11220374


--------------------------------------------------------------------------------------------------------




--------------------------------------- Iteration      1(  13)  ---------------------------------------


    POTLOK:  cpu time      0.0477: real time      0.0478
    SETDIJ:  cpu time      0.5840: real time      0.5840
     EDDAV:  cpu time      6.0869: real time      6.0900
       DOS:  cpu time      0.0008: real time      0.0008
    CHARGE:  cpu time      0.5212: real time      0.5212
    MIXING:  cpu time      0.0015: real time      0.0015
    --------------------------------------------
      LOOP:  cpu time      7.2422: real time      7.2454

 eigenvalue-minimisations  : 13732
 total energy-change (2. order) :-0.3982191E-04  (-0.1235861E-04)
 number of electron      56.0000002 magnetization      -0.1361915
 augmentation part       17.5762590 magnetization      -0.0544938

 Broyden mixing:
  rms(total) = 0.30593E-02    rms(broyden)= 0.30442E-02
  rms(prec ) = 0.35342E-02
  weight for this iteration     100.00

 eigenvalues of (default mixing * dielectric matrix)
  average eigenvalue GAMMA=   1.2123
  2.6604  2.4203  0.9818  0.9818  0.7298  0.7298  0.5700  0.6240

 Free energy of the ion-electron system (eV)
  ---------------------------------------------------
  alpha Z        PSCENC =       302.45619847
  Ewald energy   TEWEN  =     -5214.09126118
  -Hartree energ DENC   =     -1804.38603804
  -exchange      EXHF   =         0.00000000
  -V(xc)+E(xc)   XCENC  =       276.16850009
  PAW double counting   =      6603.71196774    -6569.59795235
  entropy T*S    EENTRO =        -0.00659817
  eigenvalues    EBANDS =      -598.89474203
  atomic energy  EATOM  =      6972.52437674
  Solvation  Ediel_sol  =         0.00000000
  ---------------------------------------------------
  free energy    TOTEN  =       -32.11554873 eV

  energy without entropy =      -32.10895056  energy(sigma->0) =      -32.11224964


--------------------------------------------------------------------------------------------------------




--------------------------------------- Iteration      1(  14)  ---------------------------------------


    POTLOK:  cpu time      0.0466: real time      0.0467
    SETDIJ:  cpu time      0.5898: real time      0.5899
     EDDAV:  cpu time      6.1402: real time      6.1417
       DOS:  cpu time      0.0008: real time      0.0009
    CHARGE:  cpu time      0.5221: real time      0.5221
    MIXING:  cpu time      0.0016: real time      0.0016
    --------------------------------------------
      LOOP:  cpu time      7.3011: real time      7.3028

 eigenvalue-minimisations  : 13956
 total energy-change (2. order) :-0.1888110E-04  (-0.1593401E-05)
 number of electron      56.0000002 magnetization      -0.1229604
 augmentation part       17.5763141 magnetization      -0.0473173

 Broyden mixing:
  rms(total) = 0.25787E-02    rms(broyden)= 0.25703E-02
  rms(prec ) = 0.30639E-02
  weight for this iteration     100.00

 eigenvalues of (default mixing * dielectric matrix)
  average eigenvalue GAMMA=   1.2338
  2.7667  2.5258  1.1303  1.1303  0.8342  0.8342  0.5721  0.6552  0.6552

 Free energy of the ion-electron system (eV)
  ---------------------------------------------------
  alpha Z        PSCENC =       302.45619847
  Ewald energy   TEWEN  =     -5214.09126118
  -Hartree energ DENC   =     -1804.38980355
  -exchange      EXHF   =         0.00000000
  -V(xc)+E(xc)   XCENC  =       276.16829004
  PAW double counting   =      6603.67738069    -6569.55295404
  entropy T*S    EENTRO =        -0.00658702
  eigenvalues    EBANDS =      -598.90120775
  atomic energy  EATOM  =      6972.52437674
  Solvation  Ediel_sol  =         0.00000000
  ---------------------------------------------------
  free energy    TOTEN  =       -32.11556761 eV

  energy without entropy =      -32.10898059  energy(sigma->0) =      -32.11227410


--------------------------------------------------------------------------------------------------------




--------------------------------------- Iteration      1(  15)  ---------------------------------------


    POTLOK:  cpu time      0.0471: real time      0.0471
    SETDIJ:  cpu time      0.5874: real time      0.5874
     EDDAV:  cpu time      6.3768: real time      6.3800
       DOS:  cpu time      0.0009: real time      0.0009
    CHARGE:  cpu time      0.5201: real time      0.5201
    MIXING:  cpu time      0.0016: real time      0.0016
    --------------------------------------------
      LOOP:  cpu time      7.5339: real time      7.5371

 eigenvalue-minimisations  : 14076
 total energy-change (2. order) :-0.1725187E-04  (-0.2048964E-05)
 number of electron      56.0000002 magnetization      -0.1151733
 augmentation part       17.5764642 magnetization      -0.0469664

 Broyden mixing:
  rms(total) = 0.23035E-02    rms(broyden)= 0.22926E-02
  rms(prec ) = 0.27005E-02
  weight for this iteration     100.00

 eigenvalues of (default mixing * dielectric matrix)
  average eigenvalue GAMMA=   1.2963
  2.9982  2.6628  1.4997  1.4997  0.8776  0.8776  0.5702  0.6798  0.6798  0.6177

 Free energy of the ion-electron system (eV)
  ---------------------------------------------------
  alpha Z        PSCENC =       302.45619847
  Ewald energy   TEWEN  =     -5214.09126118
  -Hartree energ DENC   =     -1804.37128161
  -exchange      EXHF   =         0.00000000
  -V(xc)+E(xc)   XCENC  =       276.16728644
  PAW double counting   =      6603.40678629    -6569.27976310
  entropy T*S    EENTRO =        -0.00657634
  eigenvalues    EBANDS =      -598.92135056
  atomic energy  EATOM  =      6972.52437674
  Solvation  Ediel_sol  =         0.00000000
  ---------------------------------------------------
  free energy    TOTEN  =       -32.11558486 eV

  energy without entropy =      -32.10900852  energy(sigma->0) =      -32.11229669


--------------------------------------------------------------------------------------------------------




--------------------------------------- Iteration      1(  16)  ---------------------------------------


[...]
      2     -46.5012      1.00000
      3     -46.3321      1.00000
      4     -46.3321      1.00000
      5     -46.1851      1.00000
      6     -46.1851      1.00000
      7     -12.7190      1.00000
      8     -12.7190      1.00000
      9     -12.4911      1.00000
     10     -12.4911      1.00000
     11      -1.4751      1.00000
     12      -1.4751      1.00000
     13      -1.1600      1.00000
     14      -1.1600      1.00000
     15       0.0737      1.00000
     16       0.0737      1.00000
     17       0.8052      1.00000
     18       0.8052      1.00000
     19       1.6500      1.00000
     20       1.6500      1.00000
     21       2.6231      1.00000
     22       2.6231      1.00000
     23       2.8886      1.00000
     24       2.8886      1.00000
     25       3.9728      1.00000
     26       3.9728      1.00000
     27       5.3569      0.99990
     28       5.3569      0.99990
     29       5.5178      0.20382
     30       5.5178      0.20382
     31       8.1642      0.00000
     32       8.1642      0.00000
     33      16.6165      0.00000
     34      16.6165      0.00000
     35      17.5208      0.00000
     36      17.5208      0.00000

 k-point    88 :       0.3750    0.3750    0.5000
  band No.  band energies     occupation 
      1     -46.5012      1.00000
      2     -46.5010      1.00000
      3     -46.3324      1.00000
      4     -46.3322      1.00000
      5     -46.1851      1.00000
      6     -46.1851      1.00000
      7     -12.7119      1.00000
      8     -12.6853      1.00000
      9     -12.5207      1.00000
     10     -12.4958      1.00000
     11      -1.4650      1.00000
     12      -1.2227      1.00000
     13      -1.1859      1.00000
     14      -1.0205      1.00000
     15      -0.6170      1.00000
     16       0.1358      1.00000
     17       0.5745      1.00000
     18       0.7922      1.00000
     19       1.5621      1.00000
     20       1.7330      1.00000
     21       2.6276      1.00000
     22       2.6287      1.00000
     23       2.8825      1.00000
     24       3.2487      1.00000
     25       3.9496      1.00000
     26       4.6154      1.00000
     27       4.8287      1.00000
     28       5.3437      0.99998
     29       5.5057      0.31269
     30       6.4861      0.00000
     31       7.3197      0.00000
     32       8.1477      0.00000
     33      16.3762      0.00000
     34      16.8563      0.00000
     35      17.0703      0.00000
     36      17.8541      0.00000

 k-point    89 :       0.5000    0.3750    0.5000
  band No.  band energies     occupation 
      1     -46.5010      1.00000
      2     -46.5010      1.00000
      3     -46.3323      1.00000
      4     -46.3323      1.00000
      5     -46.1851      1.00000
      6     -46.1851      1.00000
      7     -12.6852      1.00000
      8     -12.6852      1.00000
      9     -12.5196      1.00000
     10     -12.5196      1.00000
     11      -1.2666      1.00000
     12      -1.2666      1.00000
     13      -1.1702      1.00000
     14      -1.1702      1.00000
     15      -0.3432      1.00000
     16      -0.3432      1.00000
     17       0.6398      1.00000
     18       0.6398      1.00000
     19       1.6572      1.00000
     20       1.6572      1.00000
     21       2.6312      1.00000
     22       2.6312      1.00000
     23       3.1729      1.00000
     24       3.1729      1.00000
     25       4.3032      1.00000
     26       4.3032      1.00000
     27       5.0601      1.00000
     28       5.0601      1.00000
     29       6.0935      0.00000
     30       6.0935      0.00000
     31       7.6782      0.00000
     32       7.6782      0.00000
     33      16.4990      0.00000
     34      16.4990      0.00000
     35      17.4467      0.00000
     36      17.4467      0.00000

 k-point    90 :       0.5000    0.5000    0.5000
  band No.  band energies     occupation 
      1     -46.5010      1.00000
      2     -46.5010      1.00000
      3     -46.3324      1.00000
      4     -46.3324      1.00000
      5     -46.1851      1.00000
      6     -46.1851      1.00000
      7     -12.6672      1.00000
      8     -12.6672      1.00000
      9     -12.5355      1.00000
     10     -12.5355      1.00000
     11      -1.2129      1.00000
     12      -1.2129      1.00000
     13      -1.0645      1.00000
     14      -1.0645      1.00000
     15      -0.5831      1.00000
     16      -0.5831      1.00000
     17       0.5790      1.00000
     18       0.5790      1.00000
     19       1.6604      1.00000
     20       1.6604      1.00000
     21       2.6342      1.00000
     22       2.6342      1.00000
     23       3.2726      1.00000
     24       3.2726      1.00000
     25       4.6401      1.00000
     26       4.6401      1.00000
     27       4.7403      1.00000
     28       4.7403      1.00000
     29       6.4834      0.00000
     30       6.4834      0.00000
     31       7.3232      0.00000
     32       7.3232      0.00000
     33      16.4163      0.00000
     34      16.4163      0.00000
     35      17.4715      0.00000
     36      17.4715      0.00000


--------------------------------------------------------------------------------------------------------


 soft charge-density along one line, spin component            1
         0         1         2         3         4         5         6         7         8         9
 total charge-density along one line
 
 soft charge-density along one line, spin component            2
         0         1         2         3         4         5         6         7         8         9
 total charge-density along one line
 
 pseudopotential strength for first ion, spin component:            1
-40.514  -0.000   0.035  10.130   0.000  -0.020   0.000   0.000
 -0.000 -40.617  -0.000   0.000  10.186   0.000   0.000   0.000
  0.035  -0.000 -40.514  -0.020   0.000  10.130   0.000   0.000
 10.130   0.000  -0.020   7.360  -0.000   0.005  -0.000  -0.000
  0.000  10.186   0.000  -0.000   7.348  -0.000  -0.000  -0.000
 -0.020   0.000  10.130   0.005  -0.000   7.360  -0.000  -0.000
  0.000   0.000   0.000  -0.000  -0.000  -0.000  -5.088  -0.000
  0.000   0.000   0.000  -0.000  -0.000  -0.000  -0.000  -5.114
 -0.000   0.000  -0.000   0.000  -0.000   0.000  -0.082   0.000
  0.000   0.000   0.000  -0.000  -0.000  -0.000  -0.000  -0.045
 -0.000  -0.000   0.000   0.000   0.000  -0.000  -0.000   0.000
  0.000   0.000   0.000  -0.000  -0.000  -0.000  -5.053  -0.000
  0.000   0.000   0.000  -0.000  -0.000  -0.000  -0.000  -5.081
 -0.000   0.000  -0.000   0.000  -0.000   0.000  -0.091   0.000
  0.000   0.000   0.000  -0.000  -0.000  -0.000  -0.000  -0.050
 -0.000  -0.000   0.000   0.000   0.000  -0.000  -0.000   0.000
 -0.000  -0.000  -0.000  -0.000  -0.000  -0.000  -0.013   0.000
 -0.000  -0.000  -0.000  -0.000  -0.000  -0.000  -0.027   0.000
 pseudopotential strength for first ion, spin component:            2
-40.514  -0.000   0.035  10.130   0.000  -0.020   0.000   0.000
 -0.000 -40.617  -0.000   0.000  10.186   0.000   0.000   0.000
  0.035  -0.000 -40.514  -0.020   0.000  10.130   0.000   0.000
 10.130   0.000  -0.020   7.360  -0.000   0.005  -0.000  -0.000
  0.000  10.186   0.000  -0.000   7.348  -0.000  -0.000  -0.000
 -0.020   0.000  10.130   0.005  -0.000   7.360  -0.000  -0.000
  0.000   0.000   0.000  -0.000  -0.000  -0.000  -5.088  -0.000
  0.000   0.000   0.000  -0.000  -0.000  -0.000  -0.000  -5.113
 -0.000   0.000  -0.000   0.000  -0.000   0.000  -0.082   0.000
  0.000   0.000   0.000  -0.000  -0.000  -0.000  -0.000  -0.045
 -0.000  -0.000   0.000   0.000   0.000  -0.000  -0.000   0.000
  0.000   0.000   0.000  -0.000  -0.000  -0.000  -5.053  -0.000
  0.000   0.000   0.000  -0.000  -0.000  -0.000  -0.000  -5.081
 -0.000   0.000  -0.000   0.000  -0.000   0.000  -0.091   0.000
  0.000   0.000   0.000  -0.000  -0.000  -0.000  -0.000  -0.050
 -0.000  -0.000   0.000   0.000   0.000  -0.000  -0.000   0.000
 -0.000  -0.000  -0.000  -0.000  -0.000  -0.000  -0.013   0.000
 -0.000  -0.000  -0.000  -0.000  -0.000  -0.000  -0.027   0.000
 total augmentation occupancy for first ion, spin component:            1
  1.995   0.000   0.000  -0.035  -0.000   0.001   0.000   0.000   0.000   0.000   0.000   0.000   0.000   0.000   0.000   0.000
  0.000   1.995   0.000  -0.000  -0.036  -0.000   0.000   0.000   0.000   0.000   0.000   0.000   0.000   0.000   0.000   0.000
  0.000   0.000   1.995   0.001  -0.000  -0.035   0.000   0.000   0.000   0.000   0.000   0.000   0.000   0.000   0.000   0.000
 -0.035  -0.000   0.001   0.173   0.000  -0.019   0.000   0.000   0.000   0.000   0.000   0.000   0.000   0.000   0.000   0.000
 -0.000  -0.036  -0.000   0.000   0.203   0.000   0.000   0.000   0.000   0.000   0.000   0.000   0.000   0.000   0.000   0.000
  0.001  -0.000  -0.035  -0.019   0.000   0.173   0.000   0.000   0.000   0.000   0.000   0.000   0.000   0.000   0.000   0.000
  0.000   0.000   0.000   0.000   0.000   0.000   3.971   0.000   1.496   0.000   0.000  -1.956  -0.000  -1.208  -0.000  -0.000
  0.000   0.000   0.000   0.000   0.000   0.000   0.000   3.505   0.000   1.268  -0.000  -0.000  -1.647  -0.000  -0.994   0.000
  0.000   0.000   0.000   0.000   0.000   0.000   1.496   0.000   3.288   0.000   0.000  -1.179  -0.000  -1.442  -0.000  -0.000
  0.000   0.000   0.000   0.000   0.000   0.000   0.000   1.268   0.000   3.505   0.000  -0.000  -0.994  -0.000  -1.647  -0.000
  0.000   0.000   0.000   0.000   0.000   0.000   0.000  -0.000   0.000   0.000   2.106  -0.000   0.000  -0.000  -0.000  -0.596
  0.000   0.000   0.000   0.000   0.000   0.000  -1.956  -0.000  -1.179  -0.000  -0.000   1.474   0.000   0.593   0.000   0.000
  0.000   0.000   0.000   0.000   0.000   0.000  -0.000  -1.647  -0.000  -0.994   0.000   0.000   1.420   0.000   0.421  -0.000
  0.000   0.000   0.000   0.000   0.000   0.000  -1.208  -0.000  -1.442  -0.000  -0.000   0.593   0.000   1.359   0.000   0.000
  0.000   0.000   0.000   0.000   0.000   0.000  -0.000  -0.994  -0.000  -1.647  -0.000   0.000   0.421   0.000   1.420   0.000
  0.000   0.000   0.000   0.000   0.000   0.000  -0.000   0.000  -0.000  -0.000  -0.596   0.000  -0.000   0.000   0.000   1.046
  0.000   0.000   0.000   0.000   0.000   0.000  -0.208  -0.000   0.214  -0.000  -0.000   0.259   0.000  -0.298   0.000   0.000
  0.000   0.000   0.000   0.000   0.000   0.000   0.022   0.000  -0.011   0.000   0.000  -0.034  -0.000   0.037  -0.000  -0.000
 total augmentation occupancy for first ion, spin component:            2
  0.000   0.000  -0.000   0.000  -0.000  -0.000   0.000   0.000   0.000   0.000   0.000   0.000   0.000   0.000   0.000   0.000
  0.000   0.000  -0.000  -0.000  -0.000  -0.000   0.000   0.000   0.000   0.000   0.000   0.000   0.000   0.000   0.000   0.000
 -0.000  -0.000   0.000  -0.000  -0.000   0.000   0.000   0.000   0.000   0.000   0.000   0.000   0.000   0.000   0.000   0.000
  0.000  -0.000  -0.000  -0.000  -0.000   0.000   0.000   0.000   0.000   0.000   0.000   0.000   0.000   0.000   0.000   0.000
 -0.000  -0.000  -0.000  -0.000  -0.000  -0.000   0.000   0.000   0.000   0.000   0.000   0.000   0.000   0.000   0.000   0.000
 -0.000  -0.000   0.000   0.000  -0.000  -0.000   0.000   0.000   0.000   0.000   0.000   0.000   0.000   0.000   0.000   0.000
  0.000   0.000   0.000   0.000   0.000   0.000  -0.000  -0.000   0.000  -0.000   0.000   0.000   0.000  -0.000   0.000   0.000
  0.000   0.000   0.000   0.000   0.000   0.000  -0.000  -0.000  -0.000   0.000   0.000   0.000  -0.000  -0.000   0.000   0.000
  0.000   0.000   0.000   0.000   0.000   0.000   0.000  -0.000  -0.000  -0.000   0.000  -0.000   0.000   0.000   0.000   0.000
  0.000   0.000   0.000   0.000   0.000   0.000  -0.000   0.000  -0.000  -0.000  -0.000   0.000   0.000  -0.000  -0.000  -0.000
  0.000   0.000   0.000   0.000   0.000   0.000   0.000   0.000   0.000  -0.000  -0.000   0.000   0.000  -0.000  -0.000  -0.000
  0.000   0.000   0.000   0.000   0.000   0.000   0.000   0.000  -0.000   0.000   0.000  -0.000   0.000   0.000   0.000  -0.000
  0.000   0.000   0.000   0.000   0.000   0.000   0.000  -0.000   0.000   0.000   0.000   0.000   0.000   0.000  -0.000  -0.000
  0.000   0.000   0.000   0.000   0.000   0.000  -0.000  -0.000   0.000  -0.000  -0.000   0.000   0.000  -0.000   0.000  -0.000
  0.000   0.000   0.000   0.000   0.000   0.000   0.000   0.000   0.000  -0.000  -0.000   0.000  -0.000   0.000   0.000   0.000
  0.000   0.000   0.000   0.000   0.000   0.000   0.000   0.000   0.000  -0.000  -0.000  -0.000  -0.000  -0.000   0.000   0.000
  0.000   0.000   0.000   0.000   0.000   0.000  -0.000  -0.000  -0.000  -0.000  -0.000   0.000  -0.000   0.000  -0.000   0.000
  0.000   0.000   0.000   0.000   0.000   0.000   0.000   0.000   0.000   0.000   0.000  -0.000   0.000  -0.000   0.000   0.000


------------------------ aborting loop because EDIFF is reached ----------------------------------------





 total charge

# of ion       s       p       d       tot
------------------------------------------
    1        0.334   6.323   7.656  14.313
    2        0.334   6.323   7.656  14.313
    3        1.575   3.374   0.000   4.949
    4        1.575   3.374   0.000   4.949
    5        1.575   3.374   0.000   4.949
    6        1.575   3.374   0.000   4.949
--------------------------------------------------
tot          6.966  26.144  15.312  48.423



 magnetization (x)

# of ion       s       p       d       tot
------------------------------------------
    1       -0.000  -0.000   0.000   0.000
    2       -0.000  -0.000   0.000   0.000
    3        0.000   0.000   0.000   0.000
    4        0.000   0.000   0.000   0.000
    5        0.000   0.000   0.000   0.000
    6        0.000   0.000   0.000   0.000
--------------------------------------------------
tot          0.000   0.000   0.000   0.001
 
    CHARGE:  cpu time      0.5182: real time      0.5182
    FORLOC:  cpu time      0.0015: real time      0.0015
    FORNL :  cpu time      0.9725: real time      0.9726
    FORCOR:  cpu time      0.8331: real time      0.8331
    FORHAR:  cpu time      0.0057: real time      0.0057
    MIXING:  cpu time      0.0019: real time      0.0019
    OFIELD:  cpu time      0.0000: real time      0.0000

 ---------------------------------------------------------------------------------------------

         DFTD3 V3.0 Rev 1        
 DF pbe       
 parameters
 k1-k3        =   16.0000    1.3333   -4.0000
 Edisp (eV)   -1.41402

 E6    (eV) :    -0.8848
 E8    (eV) :    -0.5293
 % E8        : 37.43
    FORVDW:  cpu time      0.0120: real time      0.0120

 VOLUME and BASIS-vectors are now :
 -----------------------------------------------------------------------------
  energy-cutoff  :      520.00
  volume of cell :       64.34
      direct lattice vectors                 reciprocal lattice vectors
     4.522230460  0.000000000  0.000000000     0.221129818 -0.000000000  0.000000000
     0.000000000  4.522230460  0.000000000     0.000000000  0.221129818  0.000000000
     0.000000000  0.000000000  3.146273630    -0.000000000 -0.000000000  0.317836310

  length of vectors
     4.522230460  4.522230460  3.146273630     0.221129818  0.221129818  0.317836310


 FORCES acting on ions
    electron-ion (+dipol)            ewald-force                    non-local-force                 convergence-correction
 -----------------------------------------------------------------------------------------------
   0.206E-11 0.724E-11 0.681E-11   0.284E-13 0.000E+00 0.158E-13   -.317E-25 0.000E+00 0.000E+00   0.753E-13 0.661E-13 -.182E-14
   0.136E-13 0.803E-14 -.128E-11   0.284E-13 0.114E-12 -.100E-13   -.120E-24 0.000E+00 0.000E+00   0.599E-13 0.809E-13 -.283E-13
   0.374E+02 -.374E+02 0.620E-11   -.386E+02 0.386E+02 0.163E-13   0.120E+01 -.120E+01 0.278E-16   -.300E-04 0.300E-04 0.282E-15
   -.374E+02 0.374E+02 0.380E-12   0.386E+02 -.386E+02 -.574E-14   -.120E+01 0.120E+01 -.278E-16   0.300E-04 -.300E-04 0.381E-14
   0.374E+02 0.374E+02 -.108E-07   -.386E+02 -.386E+02 0.191E-12   0.120E+01 0.120E+01 0.153E-15   -.300E-04 -.300E-04 -.957E-13
   -.374E+02 -.374E+02 0.108E-07   0.386E+02 0.386E+02 -.209E-12   -.120E+01 -.120E+01 -.153E-15   0.300E-04 0.300E-04 0.951E-13
 -----------------------------------------------------------------------------------------------
   -.555E-12 0.108E-10 0.213E-11   -.711E-14 0.355E-13 -.172E-14   0.000E+00 0.000E+00 0.000E+00   0.102E-12 0.107E-12 -.266E-13
 
 
 POSITION                                       TOTAL-FORCE (eV/Angst)
 -----------------------------------------------------------------------------------
      2.26112      2.26112      1.57314        -0.000000      0.000000      0.000000
      0.00000      0.00000      0.00000        -0.000000      0.000000      0.000000
      3.65465      0.86758      1.57314        -0.045175      0.045175     -0.000000
      0.86758      3.65465      1.57314         0.045175     -0.045175      0.000000
      1.39353      1.39353      0.00000        -0.045175     -0.045175     -0.000000
      3.12870      3.12870      0.00000         0.045175      0.045175      0.000000
 -----------------------------------------------------------------------------------
    total drift:                               -0.000000      0.000000      0.000000


--------------------------------------------------------------------------------------------------------



  FREE ENERGIE OF THE ION-ELECTRON SYSTEM (eV)
  ---------------------------------------------------
  free  energy   TOTEN  =       -33.52968699 eV

  energy  without entropy=      -33.52319711  energy(sigma->0) =      -33.52644205
 


--------------------------------------------------------------------------------------------------------


    POTLOK:  cpu time      0.6321: real time      0.6321


--------------------------------------------------------------------------------------------------------


     LOOP+:  cpu time    175.4169: real time    175.8188
    4ORBIT:  cpu time      0.0000: real time      0.0000



 total charge

# of ion       s       p       d       tot
------------------------------------------
    1        0.334   6.323   7.656  14.313
    2        0.334   6.323   7.656  14.313
    3        1.575   3.374   0.000   4.949
    4        1.575   3.374   0.000   4.949
    5        1.575   3.374   0.000   4.949
    6        1.575   3.374   0.000   4.949
--------------------------------------------------
tot          6.966  26.144  15.312  48.423



 magnetization (x)

# of ion       s       p       d       tot
------------------------------------------
    1       -0.000  -0.000   0.000   0.000
    2       -0.000  -0.000   0.000   0.000
    3        0.000   0.000   0.000   0.000
    4        0.000   0.000   0.000   0.000
    5        0.000   0.000   0.000   0.000
    6        0.000   0.000   0.000   0.000
--------------------------------------------------
tot          0.000   0.000   0.000   0.001
 

 total amount of memory used by VASP MPI-rank0   140217. kBytes
=======================================================================

   base      :      30000. kBytes
   nonl-proj :      45684. kBytes
   fftplans  :       9397. kBytes
   grid      :       7672. kBytes
   one-center:        186. kBytes
   wavefun   :      47278. kBytes
 
  
  
 General timing and accounting informations for this job:
 ========================================================
  
                  Total CPU time used (sec):      177.998
                            User time (sec):      173.638
                          System time (sec):        4.361
                         Elapsed time (sec):      178.953
  
                   Maximum memory used (kb):      424136.
                   Average memory used (kb):          N/A
  
                          Minor page faults:       688247
                          Major page faults:            4
                 Voluntary context switches:          323
