Automatically generated mesh
      30
Reciprocal lattice
    0.00000000000000    0.00000000000000    0.00000000000000             1
    0.16666666666667    0.00000000000000    0.00000000000000             4
    0.33333333333334    0.00000000000000    0.00000000000000             4
    0.50000000000000    0.00000000000000    0.00000000000000             2
    0.16666666666667    0.16666666666667    0.00000000000000             4
    0.33333333333334    0.16666666666667    0.00000000000000             8
    0.50000000000000    0.16666666666667    0.00000000000000             4
    0.33333333333334    0.33333333333334    0.00000000000000             4
    0.50000000000000    0.33333333333334    0.00000000000000             4
    0.50000000000000    0.50000000000000    0.00000000000000             1
    0.00000000000000    0.00000000000000    0.25000000000000             2
    0.16666666666667    0.00000000000000    0.25000000000000             8
    0.33333333333334    0.00000000000000    0.25000000000000             8
    0.50000000000000    0.00000000000000    0.25000000000000             4
    0.16666666666667    0.16666666666667    0.25000000000000             8
    0.33333333333334    0.16666666666667    0.25000000000000            16
    0.50000000000000    0.16666666666667    0.25000000000000             8
    0.33333333333334    0.33333333333334    0.25000000000000             8
    0.50000000000000    0.33333333333334    0.25000000000000             8
    0.50000000000000    0.50000000000000    0.25000000000000             2
    0.00000000000000    0.00000000000000    0.50000000000000             1
    0.16666666666667    0.00000000000000    0.50000000000000             4
    0.33333333333334    0.00000000000000    0.50000000000000             4
    0.50000000000000    0.00000000000000    0.50000000000000             2
    0.16666666666667    0.16666666666667    0.50000000000000             4
    0.33333333333334    0.16666666666667    0.50000000000000             8
    0.50000000000000    0.16666666666667    0.50000000000000             4
    0.33333333333334    0.33333333333334    0.50000000000000             4
    0.50000000000000    0.33333333333334    0.50000000000000             4
    0.50000000000000    0.50000000000000    0.50000000000000             1
