       N       E                     dE             d eps       ncg     rms          rms(c)
DAV:   1     0.467821846356E+03    0.46782E+03   -0.27764E+04  3392   0.178E+03
DAV:   2    -0.185747373627E+01   -0.46968E+03   -0.45512E+03  3716   0.505E+02
DAV:   3    -0.241333722248E+02   -0.22276E+02   -0.22016E+02  3728   0.112E+02
DAV:   4    -0.243854193968E+02   -0.25205E+00   -0.25190E+00  3652   0.131E+01
DAV:   5    -0.243881539444E+02   -0.27345E-02   -0.27344E-02  3704   0.138E+00    0.174E+01
DAV:   6    -0.227544438662E+02    0.16337E+01   -0.15612E+01  3496   0.358E+01    0.720E+00
DAV:   7    -0.221897277710E+02    0.56472E+00   -0.25723E+00  3508   0.172E+01    0.366E+00
DAV:   8    -0.222102202176E+02   -0.20492E-01   -0.40467E-01  3568   0.408E+00    0.147E+00
DAV:   9    -0.222058753393E+02    0.43449E-02   -0.23457E-02  3644   0.137E+00    0.445E-01
DAV:  10    -0.222073162256E+02   -0.14409E-02   -0.25269E-03  3596   0.410E-01    0.174E-01
DAV:  11    -0.222075089783E+02   -0.19275E-03   -0.33661E-04  3672   0.125E-01    0.843E-02
DAV:  12    -0.222075233515E+02   -0.14373E-04   -0.49927E-05  3600   0.516E-02    0.209E-02
DAV:  13    -0.222075325273E+02   -0.91758E-05   -0.13976E-05  3608   0.265E-02    0.822E-03
DAV:  14    -0.222075339728E+02   -0.14455E-05   -0.16786E-06  2544   0.103E-02    0.323E-03
DAV:  15    -0.222075342011E+02   -0.22825E-06   -0.56825E-07  2148   0.604E-03
   1 F= -.23451258E+02 E0= -.23450813E+02  d E =-.889617E-03  mag=    -0.0000
