       N       E                     dE             d eps       ncg     rms          rms(c)
DAV:   1     0.585503265706E+03    0.58550E+03   -0.34239E+04 21928   0.172E+03
DAV:   2    -0.774358176088E+01   -0.59325E+03   -0.57174E+03 24684   0.488E+02
DAV:   3    -0.405707792009E+02   -0.32827E+02   -0.32468E+02 23168   0.119E+02
DAV:   4    -0.409913635183E+02   -0.42058E+00   -0.41999E+00 23504   0.146E+01
DAV:   5    -0.409960850599E+02   -0.47215E-02   -0.47211E-02 22732   0.156E+00    0.281E+01
DAV:   6    -0.356349018542E+02    0.53612E+01   -0.51680E+01 22764   0.655E+01    0.156E+01
DAV:   7    -0.321954627608E+02    0.34394E+01   -0.15398E+01 22308   0.359E+01    0.538E+00
DAV:   8    -0.321424058792E+02    0.53057E-01   -0.12744E+00 22524   0.662E+00    0.307E+00
DAV:   9    -0.321168483522E+02    0.25558E-01   -0.14821E-01 23052   0.340E+00    0.891E-01
DAV:  10    -0.321117174050E+02    0.51309E-02   -0.22667E-02 22508   0.145E+00    0.266E-01
DAV:  11    -0.321120628480E+02   -0.34544E-03   -0.24124E-03 22656   0.383E-01    0.121E-01
DAV:  12    -0.321120734485E+02   -0.10601E-04   -0.17046E-04 22620   0.947E-02    0.491E-02
DAV:  13    -0.321120984786E+02   -0.25030E-04   -0.84009E-05 22444   0.569E-02    0.221E-02
DAV:  14    -0.321121064884E+02   -0.80098E-05   -0.76881E-06 22876   0.179E-02    0.158E-02
DAV:  15    -0.321121120341E+02   -0.55457E-05   -0.76554E-06 22916   0.165E-02    0.134E-02
DAV:  16    -0.321121153897E+02   -0.33556E-05   -0.20675E-06 13452   0.864E-03    0.123E-02
DAV:  17    -0.321121223743E+02   -0.69845E-05   -0.17174E-05 22916   0.241E-02    0.938E-03
DAV:  18    -0.321121280250E+02   -0.56508E-05   -0.17898E-05 22808   0.240E-02    0.680E-03
DAV:  19    -0.321121325483E+02   -0.45232E-05   -0.33715E-05 22800   0.327E-02    0.439E-03
DAV:  20    -0.321121355957E+02   -0.30474E-05   -0.27679E-05 22988   0.295E-02    0.306E-03
DAV:  21    -0.321121388204E+02   -0.32247E-05   -0.21621E-06 14748   0.104E-02    0.170E-03
DAV:  22    -0.321121384942E+02    0.32616E-06   -0.12965E-05 22884   0.207E-02    0.190E-03
DAV:  23    -0.321121396810E+02   -0.11868E-05   -0.45108E-07 11484   0.576E-03    0.484E-04
DAV:  24    -0.321121396607E+02    0.20333E-07   -0.45230E-07 10656   0.398E-03
   1 F= -.33526159E+02 E0= -.33522454E+02  d E =-.741027E-02  mag=     0.0005
