 vasp.6.4.3 19Mar24 (build Nov 27 2025 15:18:09) complex                         
 executed on              LinuxNV date 2026.06.04  16:47:42
 running    4 mpi-ranks, with    1 threads/rank, on    1 nodes
 distrk:  each k-point on    4 cores,    1 groups
 distr:  one band on NCORE=   1 cores,    4 groups
 OpenACC runtime initialized ...    0 GPUs detected


--------------------------------------------------------------------------------------------------------


 INCAR:
   SYSTEM = pddmc
   ENCUT = 520
   PREC = Accurate
   LASPH = .TRUE.
   ADDGRID = .TRUE.
   ISPIN = 2
   IVDW = 12
   EDIFF = 1e-06
   NELM = 200
   NELMIN = 5
   ALGO = Normal
   NCORE = 1
   LREAL = .FALSE.
   LWAVE = .FALSE.
   LCHARG = .FALSE.
   LORBIT = 11
   ISYM = 2
   IBRION = -1
   NSW = 0
   ISIF = 0
   ISMEAR = 0
   SIGMA = 0.05
   EDIFFG = -0.01

 POTCAR:    PAW_PBE Pd_pv 28Jan2005               
 POTCAR:    PAW_PBE O 08Apr2002                   
 -----------------------------------------------------------------------------
|                                                                             |
|           W    W    AA    RRRRR   N    N  II  N    N   GGGG   !!!           |
|           W    W   A  A   R    R  NN   N  II  NN   N  G    G  !!!           |
|           W    W  A    A  R    R  N N  N  II  N N  N  G       !!!           |
|           W WW W  AAAAAA  RRRRR   N  N N  II  N  N N  G  GGG   !            |
|           WW  WW  A    A  R   R   N   NN  II  N   NN  G    G                |
|           W    W  A    A  R    R  N    N  II  N    N   GGGG   !!!           |
|                                                                             |
|     You use a magnetic or noncollinear calculation, but did not specify     |
|     the initial magnetic moment with the MAGMOM tag. Note that a            |
|     default of 1 will be used for all atoms. This ferromagnetic setup       |
|     may break the symmetry of the crystal, in particular it may rule        |
|     out finding an antiferromagnetic solution. Thence, we recommend         |
|     setting the initial magnetic moment manually or verifying carefully     |
|     that this magnetic setup is desired.                                    |
|                                                                             |
 -----------------------------------------------------------------------------

 POTCAR:    PAW_PBE Pd_pv 28Jan2005               
   SHA256 =  3ce661545bbde58da9a95410dea32907db2844916708bcd35bbe03ee66324d7f Pd_pv/POTCAR          
   COPYR  = (c) Copyright 28Jan2005 Georg Kresse                                                    
   COPYR  = This file is part of the software VASP. Any use, copying, and all other rights are regul
   COPYR  = If you do not have a valid VASP license, you may not use, copy or distribute this file. 
   VRHFIN =Pd: 4p5s4d                                                                               
   LEXCH  = PE                                                                                      
   EATOM  =  2621.5550 eV,  192.6789 Ry                                                             
                                                                                                    
   TITEL  = PAW_PBE Pd_pv 28Jan2005                                                                 
   LULTRA =        F    use ultrasoft PP ?                                                          
   IUNSCR =        1    unscreen: 0-lin 1-nonlin 2-no                                               
   RPACOR =    2.250    partial core radius                                                         
   POMASS =  106.420; ZVAL   =   16.000    mass and valenz                                          
   RCORE  =    2.400    outmost cutoff radius                                                       
   RWIGS  =    2.300; RWIGS  =    1.217    wigner-seitz radius (au A)                               
   ENMAX  =  250.925; ENMIN  =  188.194 eV                                                          
   ICORE  =        3    local potential                                                             
   LCOR   =        T    correct aug charges                                                         
   LPAW   =        T    paw PP                                                                      
   EAUG   =  473.067                                                                                
   DEXC   =    0.000                                                                                
   RMAX   =    2.449    core radius for proj-oper                                                   
   RAUG   =    1.300    factor for augmentation sphere                                              
   RDEP   =    2.405    radius for radial grids                                                     
   RDEPT  =    1.966    core radius for aug-charge                                                  
                                                                                                    
   Atomic configuration                                                                             
   11 entries                                                                                       
     n  l   j            E        occ.                                                              
     1  0  0.50    -24164.6632   2.0000                                                             
     2  0  0.50     -3530.9218   2.0000                                                             
     2  1  1.50     -3165.6822   6.0000                                                             
     3  0  0.50      -639.4578   2.0000                                                             
     3  1  1.50      -519.4532   6.0000                                                             
     3  2  2.50      -328.9758  10.0000                                                             
     4  0  0.50       -88.7014   2.0000                                                             
     4  1  1.50       -54.4541   6.0000                                                             
     4  2  2.50        -6.6878   9.0000                                                             
     5  0  0.50        -4.3543   1.0000                                                             
     4  3  2.50        -1.3606   0.0000                                                             
   Description                                                                                      
     l       E           TYP  RCUT    TYP  RCUT                                                     
     1    -54.4540524     23  2.100                                                                 
     1      4.0817478     23  2.100                                                                 
     2     -6.6878326     23  2.400                                                                 
     2     -4.0817478     23  2.400                                                                 
     0     -4.3542962     23  2.400                                                                 
     0     13.6058260     23  2.400                                                                 
     3     -5.4423304     23  2.400                                                                 
  local pseudopotential read in
  partial core-charges read in
  partial kinetic energy density read in
  atomic valenz-charges read in
  non local Contribution for L=            1  read in
    real space projection operators read in
  non local Contribution for L=            1  read in
    real space projection operators read in
  non local Contribution for L=            2  read in
    real space projection operators read in
  non local Contribution for L=            2  read in
    real space projection operators read in
  non local Contribution for L=            0  read in
    real space projection operators read in
  non local Contribution for L=            0  read in
    real space projection operators read in
    PAW grid and wavefunctions read in
 
   number of l-projection  operators is LMAX  =            6
   number of lm-projection operators is LMMAX =           18
 
 POTCAR:    PAW_PBE O 08Apr2002                   
   SHA256 =  818f92134a0a090dccd8ba1447fa70422a3b330e708bb4f08108d8ae51209ddf O/POTCAR              
   COPYR  = (c) Copyright 08Apr2002 Georg Kresse                                                    
   COPYR  = This file is part of the software VASP. Any use, copying, and all other rights are regul
   COPYR  = If you do not have a valid VASP license, you may not use, copy or distribute this file. 
   VRHFIN =O: s2p4                                                                                  
   LEXCH  = PE                                                                                      
   EATOM  =   432.3788 eV,   31.7789 Ry                                                             
                                                                                                    
   TITEL  = PAW_PBE O 08Apr2002                                                                     
   LULTRA =        F    use ultrasoft PP ?                                                          
   IUNSCR =        1    unscreen: 0-lin 1-nonlin 2-no                                               
   RPACOR =    1.200    partial core radius                                                         
   POMASS =   16.000; ZVAL   =    6.000    mass and valenz                                          
   RCORE  =    1.520    outmost cutoff radius                                                       
   RWIGS  =    1.550; RWIGS  =    0.820    wigner-seitz radius (au A)                               
   ENMAX  =  400.000; ENMIN  =  300.000 eV                                                          
   ICORE  =        2    local potential                                                             
   LCOR   =        T    correct aug charges                                                         
   LPAW   =        T    paw PP                                                                      
   EAUG   =  605.392                                                                                
   DEXC   =    0.000                                                                                
   RMAX   =    1.553    core radius for proj-oper                                                   
   RAUG   =    1.300    factor for augmentation sphere                                              
   RDEP   =    1.550    radius for radial grids                                                     
   RDEPT  =    1.329    core radius for aug-charge                                                  
                                                                                                    
   Atomic configuration                                                                             
    4 entries                                                                                       
     n  l   j            E        occ.                                                              
     1  0  0.50      -514.6923   2.0000                                                             
     2  0  0.50       -23.9615   2.0000                                                             
     2  1  0.50        -9.0305   4.0000                                                             
     3  2  1.50        -9.5241   0.0000                                                             
   Description                                                                                      
     l       E           TYP  RCUT    TYP  RCUT                                                     
     0    -23.9615318     23  1.200                                                                 
     0     -9.5240782     23  1.200                                                                 
     1     -9.0304911     23  1.520                                                                 
     1      8.1634956     23  1.520                                                                 
     2     -9.5240782      7  1.500                                                                 
  local pseudopotential read in
  partial core-charges read in
  partial kinetic energy density read in
  kinetic energy density of atom read in
  atomic valenz-charges read in
  non local Contribution for L=            0  read in
    real space projection operators read in
  non local Contribution for L=            0  read in
    real space projection operators read in
  non local Contribution for L=            1  read in
    real space projection operators read in
  non local Contribution for L=            1  read in
    real space projection operators read in
    PAW grid and wavefunctions read in
 
   number of l-projection  operators is LMAX  =            4
   number of lm-projection operators is LMMAX =            8
 
  PAW_PBE Pd_pv 28Jan2005               :
 energy of atom  1       EATOM=-2621.5550
 kinetic energy error for atom=    0.0088 (will be added to EATOM!!)
  PAW_PBE O 08Apr2002                   :
 energy of atom  2       EATOM= -432.3788
 kinetic energy error for atom=    0.0208 (will be added to EATOM!!)
 
 
 POSCAR: Pd O
  positions in cartesian coordinates
  No initial velocities read in
 IVDW         = 12
 VDW_S6       =    1.0000
 VDW_S8       =    0.7875
 VDW_A1       =    0.4289
 VDW_A2       =    4.4407
 VDW_RADIUS   =   50.2022 A
 VDW_CNRADIUS =   21.1671 A


 exchange-correlation table for PE
   RHO(1)=    0.500       N(1)  =     2000
   RHO(2)=  100.500       N(2)  =     4000
 


--------------------------------------------------------------------------------------------------------


 ion  position               nearest neighbor table
   1  0.500  0.500  0.500-   3 1.97   4 1.97   5 2.00   6 2.00   5 2.00   6 2.00
   2  0.000  0.000  0.000-   5 1.97   6 1.97   3 2.00   4 2.00   3 2.00   4 2.00
   3  0.808  0.192  0.500-   1 1.97   2 2.00   2 2.00
   4  0.192  0.808  0.500-   1 1.97   2 2.00   2 2.00
   5  0.308  0.308  0.000-   2 1.97   1 2.00   1 2.00
   6  0.692  0.692  0.000-   2 1.97   1 2.00   1 2.00
 
  LATTYP: Found a simple tetragonal cell.
 ALAT       =     4.5222304600
 C/A-ratio  =     0.6957349162
  
  Lattice vectors:
  
 A1 = (   4.5222304600,   0.0000000000,   0.0000000000)
 A2 = (   0.0000000000,   4.5222304600,   0.0000000000)
 A3 = (   0.0000000000,   0.0000000000,   3.1462736300)


Analysis of symmetry for initial positions (statically):
=====================================================================
 Subroutine PRICEL returns:
 Original cell was already a primitive cell.
 

 Routine SETGRP: Setting up the symmetry group for a 
 simple tetragonal supercell.


 Subroutine GETGRP returns: Found 16 space group operations
 (whereof  8 operations were pure point group operations)
 out of a pool of 16 trial point group operations.


The static configuration has the point symmetry D_2h.
 The point group associated with its full space group is D_4h.


Analysis of symmetry for dynamics (positions and initial velocities):
=====================================================================
 Subroutine PRICEL returns:
 Original cell was already a primitive cell.
 

 Routine SETGRP: Setting up the symmetry group for a 
 simple tetragonal supercell.


 Subroutine GETGRP returns: Found 16 space group operations
 (whereof  8 operations were pure point group operations)
 out of a pool of 16 trial point group operations.


The dynamic configuration has the point symmetry D_2h.
 The point group associated with its full space group is D_4h.


Analysis of structural, dynamic, and magnetic symmetry:
=====================================================================
 Subroutine PRICEL returns:
 Original cell was already a primitive cell.
 

 Routine SETGRP: Setting up the symmetry group for a 
 simple tetragonal supercell.


 Subroutine GETGRP returns: Found 16 space group operations
 (whereof  8 operations were pure point group operations)
 out of a pool of 16 trial point group operations.


The overall configuration has the point symmetry D_2h.
 The point group associated with its full space group is D_4h.


 Subroutine INISYM returns: Found 16 space group operations
 (whereof  8 operations are pure point group operations),
 and found     1 'primitive' translations


----------------------------------------------------------------------------------------

                                     Primitive cell                                     

  volume of cell :      64.3431

  direct lattice vectors                    reciprocal lattice vectors
     4.522230460  0.000000000  0.000000000     0.221129818 -0.000000000  0.000000000
     0.000000000  4.522230460  0.000000000     0.000000000  0.221129818  0.000000000
     0.000000000  0.000000000  3.146273630    -0.000000000 -0.000000000  0.317836310

  length of vectors
     4.522230460  4.522230460  3.146273630     0.221129818  0.221129818  0.317836310

  position of ions in fractional coordinates (direct lattice)
     0.500000000  0.500000000  0.500000000
     0.000000000  0.000000000  0.000000000
     0.808151920  0.191848080  0.500000000
     0.191848080  0.808151920  0.500000000
     0.308151920  0.308151920  1.000000000
     0.691848080  0.691848080  1.000000000

  ion indices of the primitive-cell ions
   primitive index   ion index
                 1           1
                 2           2
                 3           3
                 4           4
                 5           5
                 6           6

----------------------------------------------------------------------------------------

 
 
 KPOINTS: Automatic mesh                          

Automatic generation of k-mesh.
 Grid dimensions read from file:
 generate k-points for:   10   10   12

 Generating k-lattice:

  Cartesian coordinates                     Fractional coordinates (reciprocal lattice)
     0.022112982 -0.000000000  0.000000000     0.100000000 -0.000000000  0.000000000
     0.000000000  0.022112982  0.000000000     0.000000000  0.100000000  0.000000000
    -0.000000000 -0.000000000  0.026486359    -0.000000000 -0.000000000  0.083333333

  Length of vectors
     0.022112982  0.022112982  0.026486359

  Shift w.r.t. Gamma in fractional coordinates (k-lattice)
     0.000000000  0.000000000  0.000000000

 
 Subroutine IBZKPT returns following result:
 ===========================================
 
 Found    147 irreducible k-points:
 
 Following reciprocal coordinates:
            Coordinates               Weight
  0.000000  0.000000  0.000000      1.000000
  0.100000  0.000000  0.000000      4.000000
  0.200000  0.000000  0.000000      4.000000
  0.300000  0.000000  0.000000      4.000000
  0.400000  0.000000  0.000000      4.000000
  0.500000  0.000000  0.000000      2.000000
  0.100000  0.100000  0.000000      4.000000
  0.200000  0.100000  0.000000      8.000000
  0.300000  0.100000  0.000000      8.000000
  0.400000  0.100000  0.000000      8.000000
  0.500000  0.100000  0.000000      4.000000
  0.200000  0.200000  0.000000      4.000000
  0.300000  0.200000  0.000000      8.000000
  0.400000  0.200000  0.000000      8.000000
  0.500000  0.200000  0.000000      4.000000
  0.300000  0.300000  0.000000      4.000000
  0.400000  0.300000  0.000000      8.000000
  0.500000  0.300000  0.000000      4.000000
  0.400000  0.400000  0.000000      4.000000
  0.500000  0.400000  0.000000      4.000000
  0.500000  0.500000  0.000000      1.000000
  0.000000  0.000000  0.083333      2.000000
  0.100000  0.000000  0.083333      8.000000
  0.200000  0.000000  0.083333      8.000000
  0.300000  0.000000  0.083333      8.000000
  0.400000  0.000000  0.083333      8.000000
  0.500000  0.000000  0.083333      4.000000
  0.100000  0.100000  0.083333      8.000000
  0.200000  0.100000  0.083333     16.000000
  0.300000  0.100000  0.083333     16.000000
  0.400000  0.100000  0.083333     16.000000
  0.500000  0.100000  0.083333      8.000000
  0.200000  0.200000  0.083333      8.000000
  0.300000  0.200000  0.083333     16.000000
  0.400000  0.200000  0.083333     16.000000
  0.500000  0.200000  0.083333      8.000000
  0.300000  0.300000  0.083333      8.000000
  0.400000  0.300000  0.083333     16.000000
  0.500000  0.300000  0.083333      8.000000
  0.400000  0.400000  0.083333      8.000000
  0.500000  0.400000  0.083333      8.000000
  0.500000  0.500000  0.083333      2.000000
  0.000000  0.000000  0.166667      2.000000
  0.100000  0.000000  0.166667      8.000000
  0.200000  0.000000  0.166667      8.000000
  0.300000  0.000000  0.166667      8.000000
  0.400000  0.000000  0.166667      8.000000
  0.500000  0.000000  0.166667      4.000000
  0.100000  0.100000  0.166667      8.000000
  0.200000  0.100000  0.166667     16.000000
  0.300000  0.100000  0.166667     16.000000
  0.400000  0.100000  0.166667     16.000000
  0.500000  0.100000  0.166667      8.000000
  0.200000  0.200000  0.166667      8.000000
  0.300000  0.200000  0.166667     16.000000
  0.400000  0.200000  0.166667     16.000000
  0.500000  0.200000  0.166667      8.000000
  0.300000  0.300000  0.166667      8.000000
  0.400000  0.300000  0.166667     16.000000
  0.500000  0.300000  0.166667      8.000000
  0.400000  0.400000  0.166667      8.000000
  0.500000  0.400000  0.166667      8.000000
  0.500000  0.500000  0.166667      2.000000
  0.000000  0.000000  0.250000      2.000000
  0.100000  0.000000  0.250000      8.000000
  0.200000  0.000000  0.250000      8.000000
  0.300000  0.000000  0.250000      8.000000
  0.400000  0.000000  0.250000      8.000000
  0.500000  0.000000  0.250000      4.000000
  0.100000  0.100000  0.250000      8.000000
  0.200000  0.100000  0.250000     16.000000
  0.300000  0.100000  0.250000     16.000000
  0.400000  0.100000  0.250000     16.000000
  0.500000  0.100000  0.250000      8.000000
  0.200000  0.200000  0.250000      8.000000
  0.300000  0.200000  0.250000     16.000000
  0.400000  0.200000  0.250000     16.000000
  0.500000  0.200000  0.250000      8.000000
  0.300000  0.300000  0.250000      8.000000
  0.400000  0.300000  0.250000     16.000000
  0.500000  0.300000  0.250000      8.000000
  0.400000  0.400000  0.250000      8.000000
  0.500000  0.400000  0.250000      8.000000
  0.500000  0.500000  0.250000      2.000000
  0.000000  0.000000  0.333333      2.000000
  0.100000  0.000000  0.333333      8.000000
  0.200000  0.000000  0.333333      8.000000
  0.300000  0.000000  0.333333      8.000000
  0.400000  0.000000  0.333333      8.000000
  0.500000  0.000000  0.333333      4.000000
  0.100000  0.100000  0.333333      8.000000
  0.200000  0.100000  0.333333     16.000000
  0.300000  0.100000  0.333333     16.000000
  0.400000  0.100000  0.333333     16.000000
  0.500000  0.100000  0.333333      8.000000
  0.200000  0.200000  0.333333      8.000000
  0.300000  0.200000  0.333333     16.000000
  0.400000  0.200000  0.333333     16.000000
  0.500000  0.200000  0.333333      8.000000
  0.300000  0.300000  0.333333      8.000000
  0.400000  0.300000  0.333333     16.000000
  0.500000  0.300000  0.333333      8.000000
  0.400000  0.400000  0.333333      8.000000
  0.500000  0.400000  0.333333      8.000000
  0.500000  0.500000  0.333333      2.000000
  0.000000  0.000000  0.416667      2.000000
  0.100000  0.000000  0.416667      8.000000
  0.200000  0.000000  0.416667      8.000000
  0.300000  0.000000  0.416667      8.000000
  0.400000  0.000000  0.416667      8.000000
  0.500000  0.000000  0.416667      4.000000
  0.100000  0.100000  0.416667      8.000000
  0.200000  0.100000  0.416667     16.000000
  0.300000  0.100000  0.416667     16.000000
  0.400000  0.100000  0.416667     16.000000
  0.500000  0.100000  0.416667      8.000000
  0.200000  0.200000  0.416667      8.000000
  0.300000  0.200000  0.416667     16.000000
  0.400000  0.200000  0.416667     16.000000
  0.500000  0.200000  0.416667      8.000000
  0.300000  0.300000  0.416667      8.000000
  0.400000  0.300000  0.416667     16.000000
  0.500000  0.300000  0.416667      8.000000
  0.400000  0.400000  0.416667      8.000000
  0.500000  0.400000  0.416667      8.000000
  0.500000  0.500000  0.416667      2.000000
  0.000000  0.000000  0.500000      1.000000
  0.100000  0.000000  0.500000      4.000000
  0.200000  0.000000  0.500000      4.000000
  0.300000  0.000000  0.500000      4.000000
  0.400000  0.000000  0.500000      4.000000
  0.500000  0.000000  0.500000      2.000000
  0.100000  0.100000  0.500000      4.000000
  0.200000  0.100000  0.500000      8.000000
  0.300000  0.100000  0.500000      8.000000
  0.400000  0.100000  0.500000      8.000000
  0.500000  0.100000  0.500000      4.000000
  0.200000  0.200000  0.500000      4.000000
  0.300000  0.200000  0.500000      8.000000
  0.400000  0.200000  0.500000      8.000000
  0.500000  0.200000  0.500000      4.000000
  0.300000  0.300000  0.500000      4.000000
  0.400000  0.300000  0.500000      8.000000
  0.500000  0.300000  0.500000      4.000000
  0.400000  0.400000  0.500000      4.000000
  0.500000  0.400000  0.500000      4.000000
  0.500000  0.500000  0.500000      1.000000
 
 Following cartesian coordinates:
            Coordinates               Weight
  0.000000  0.000000  0.000000      1.000000
  0.022113  0.000000  0.000000      4.000000
  0.044226  0.000000  0.000000      4.000000
  0.066339  0.000000  0.000000      4.000000
  0.088452  0.000000  0.000000      4.000000
  0.110565  0.000000  0.000000      2.000000
  0.022113  0.022113  0.000000      4.000000
  0.044226  0.022113  0.000000      8.000000
  0.066339  0.022113  0.000000      8.000000
  0.088452  0.022113  0.000000      8.000000
  0.110565  0.022113  0.000000      4.000000
  0.044226  0.044226  0.000000      4.000000
  0.066339  0.044226  0.000000      8.000000
  0.088452  0.044226  0.000000      8.000000
  0.110565  0.044226  0.000000      4.000000
  0.066339  0.066339  0.000000      4.000000
  0.088452  0.066339  0.000000      8.000000
  0.110565  0.066339  0.000000      4.000000
  0.088452  0.088452  0.000000      4.000000
  0.110565  0.088452  0.000000      4.000000
  0.110565  0.110565  0.000000      1.000000
  0.000000  0.000000  0.026486      2.000000
  0.022113  0.000000  0.026486      8.000000
  0.044226  0.000000  0.026486      8.000000
  0.066339  0.000000  0.026486      8.000000
  0.088452  0.000000  0.026486      8.000000
  0.110565  0.000000  0.026486      4.000000
  0.022113  0.022113  0.026486      8.000000
  0.044226  0.022113  0.026486     16.000000
  0.066339  0.022113  0.026486     16.000000
  0.088452  0.022113  0.026486     16.000000
  0.110565  0.022113  0.026486      8.000000
  0.044226  0.044226  0.026486      8.000000
  0.066339  0.044226  0.026486     16.000000
  0.088452  0.044226  0.026486     16.000000
  0.110565  0.044226  0.026486      8.000000
  0.066339  0.066339  0.026486      8.000000
  0.088452  0.066339  0.026486     16.000000
  0.110565  0.066339  0.026486      8.000000
  0.088452  0.088452  0.026486      8.000000
  0.110565  0.088452  0.026486      8.000000
  0.110565  0.110565  0.026486      2.000000
  0.000000  0.000000  0.052973      2.000000
  0.022113  0.000000  0.052973      8.000000
  0.044226  0.000000  0.052973      8.000000
  0.066339  0.000000  0.052973      8.000000
  0.088452  0.000000  0.052973      8.000000
  0.110565  0.000000  0.052973      4.000000
  0.022113  0.022113  0.052973      8.000000
  0.044226  0.022113  0.052973     16.000000
  0.066339  0.022113  0.052973     16.000000
  0.088452  0.022113  0.052973     16.000000
  0.110565  0.022113  0.052973      8.000000
  0.044226  0.044226  0.052973      8.000000
  0.066339  0.044226  0.052973     16.000000
  0.088452  0.044226  0.052973     16.000000
  0.110565  0.044226  0.052973      8.000000
  0.066339  0.066339  0.052973      8.000000
  0.088452  0.066339  0.052973     16.000000
  0.110565  0.066339  0.052973      8.000000
  0.088452  0.088452  0.052973      8.000000
  0.110565  0.088452  0.052973      8.000000
  0.110565  0.110565  0.052973      2.000000
  0.000000  0.000000  0.079459      2.000000
  0.022113  0.000000  0.079459      8.000000
  0.044226  0.000000  0.079459      8.000000
  0.066339  0.000000  0.079459      8.000000
  0.088452  0.000000  0.079459      8.000000
  0.110565  0.000000  0.079459      4.000000
  0.022113  0.022113  0.079459      8.000000
  0.044226  0.022113  0.079459     16.000000
  0.066339  0.022113  0.079459     16.000000
  0.088452  0.022113  0.079459     16.000000
  0.110565  0.022113  0.079459      8.000000
  0.044226  0.044226  0.079459      8.000000
  0.066339  0.044226  0.079459     16.000000
  0.088452  0.044226  0.079459     16.000000
  0.110565  0.044226  0.079459      8.000000
  0.066339  0.066339  0.079459      8.000000
  0.088452  0.066339  0.079459     16.000000
  0.110565  0.066339  0.079459      8.000000
  0.088452  0.088452  0.079459      8.000000
  0.110565  0.088452  0.079459      8.000000
  0.110565  0.110565  0.079459      2.000000
  0.000000  0.000000  0.105945      2.000000
  0.022113  0.000000  0.105945      8.000000
  0.044226  0.000000  0.105945      8.000000
  0.066339  0.000000  0.105945      8.000000
  0.088452  0.000000  0.105945      8.000000
  0.110565  0.000000  0.105945      4.000000
  0.022113  0.022113  0.105945      8.000000
  0.044226  0.022113  0.105945     16.000000
  0.066339  0.022113  0.105945     16.000000
  0.088452  0.022113  0.105945     16.000000
  0.110565  0.022113  0.105945      8.000000
  0.044226  0.044226  0.105945      8.000000
  0.066339  0.044226  0.105945     16.000000
  0.088452  0.044226  0.105945     16.000000
  0.110565  0.044226  0.105945      8.000000
  0.066339  0.066339  0.105945      8.000000
  0.088452  0.066339  0.105945     16.000000
  0.110565  0.066339  0.105945      8.000000
  0.088452  0.088452  0.105945      8.000000
  0.110565  0.088452  0.105945      8.000000
  0.110565  0.110565  0.105945      2.000000
  0.000000  0.000000  0.132432      2.000000
  0.022113  0.000000  0.132432      8.000000
  0.044226  0.000000  0.132432      8.000000
  0.066339  0.000000  0.132432      8.000000
  0.088452  0.000000  0.132432      8.000000
  0.110565  0.000000  0.132432      4.000000
  0.022113  0.022113  0.132432      8.000000
  0.044226  0.022113  0.132432     16.000000
  0.066339  0.022113  0.132432     16.000000
  0.088452  0.022113  0.132432     16.000000
  0.110565  0.022113  0.132432      8.000000
  0.044226  0.044226  0.132432      8.000000
  0.066339  0.044226  0.132432     16.000000
  0.088452  0.044226  0.132432     16.000000
  0.110565  0.044226  0.132432      8.000000
  0.066339  0.066339  0.132432      8.000000
  0.088452  0.066339  0.132432     16.000000
  0.110565  0.066339  0.132432      8.000000
  0.088452  0.088452  0.132432      8.000000
  0.110565  0.088452  0.132432      8.000000
  0.110565  0.110565  0.132432      2.000000
  0.000000  0.000000  0.158918      1.000000
  0.022113  0.000000  0.158918      4.000000
  0.044226  0.000000  0.158918      4.000000
  0.066339  0.000000  0.158918      4.000000
  0.088452  0.000000  0.158918      4.000000
  0.110565  0.000000  0.158918      2.000000
  0.022113  0.022113  0.158918      4.000000
  0.044226  0.022113  0.158918      8.000000
  0.066339  0.022113  0.158918      8.000000
  0.088452  0.022113  0.158918      8.000000
  0.110565  0.022113  0.158918      4.000000
  0.044226  0.044226  0.158918      4.000000
  0.066339  0.044226  0.158918      8.000000
  0.088452  0.044226  0.158918      8.000000
  0.110565  0.044226  0.158918      4.000000
  0.066339  0.066339  0.158918      4.000000
  0.088452  0.066339  0.158918      8.000000
  0.110565  0.066339  0.158918      4.000000
  0.088452  0.088452  0.158918      4.000000
  0.110565  0.088452  0.158918      4.000000
  0.110565  0.110565  0.158918      1.000000
 


--------------------------------------------------------------------------------------------------------




 Dimension of arrays:
   k-points           NKPTS =    147   k-points in BZ     NKDIM =    147   number of bands    NBANDS=     36
   number of dos      NEDOS =    301   number of ions     NIONS =      6
   non local maximal  LDIM  =      6   non local SUM 2l+1 LMDIM =     18
   total plane-waves  NPLWV =  31104
   max r-space proj   IRMAX =      1   max aug-charges    IRDMAX= 155006
   dimension x,y,z NGX =    36 NGY =   36 NGZ =   24
   dimension x,y,z NGXF=    72 NGYF=   72 NGZF=   48
   support grid    NGXF=   144 NGYF=  144 NGZF=   96
   ions per type =               2   4
   NGX,Y,Z   is equivalent  to a cutoff of  13.23, 13.23, 12.68 a.u.
   NGXF,Y,Z  is equivalent  to a cutoff of  26.47, 26.47, 25.36 a.u.

 SYSTEM =  pddmc                                   
 POSCAR =  Pd O                                    

 Startparameter for this run:
   NWRITE =      2    write-flag & timer
   PREC   = accura    normal or accurate (medium, high low for compatibility)
   ISTART =      0    job   : 0-new  1-cont  2-samecut
   ICHARG =      2    charge: 1-file 2-atom 10-const
   ISPIN  =      2    spin polarized calculation?
   LNONCOLLINEAR =      F non collinear calculations
   LSORBIT =      F    spin-orbit coupling
   INIWAV =      1    electr: 0-lowe 1-rand  2-diag
   LASPH  =      T    aspherical Exc in radial PAW
 Electronic Relaxation 1
   ENCUT  =  520.0 eV  38.22 Ry    6.18 a.u.   8.41  8.41  5.85*2*pi/ulx,y,z
   ENINI  =  520.0     initial cutoff
   ENAUG  =  605.4 eV  augmentation charge cutoff
   NELM   =    200;   NELMIN=  5; NELMDL= -5     # of ELM steps 
   EDIFF  = 0.1E-05   stopping-criterion for ELM
   LREAL  =      F    real-space projection
   NLSPLINE    = F    spline interpolate recip. space projectors
   LCOMPAT=      F    compatible to vasp.4.4
   GGA_COMPAT  = T    GGA compatible to vasp.4.4-vasp.4.6
   LMAXPAW     = -100 max onsite density
   LMAXMIX     =    2 max onsite mixed and CHGCAR
   VOSKOWN=      0    Vosko Wilk Nusair interpolation
   ROPT   =    0.00000   0.00000
 Ionic relaxation
   EDIFFG = -.1E-01   stopping-criterion for IOM
   NSW    =      0    number of steps for IOM
   NBLOCK =      1;   KBLOCK =      1    inner block; outer block 
   IBRION =     -1    ionic relax: 0-MD 1-quasi-New 2-CG
   NFREE  =      0    steps in history (QN), initial steepest desc. (CG)
   ISIF   =      0    stress and relaxation
   IWAVPR =     10    prediction:  0-non 1-charg 2-wave 3-comb
   ISYM   =      2    0-nonsym 1-usesym 2-fastsym
   LCORR  =      T    Harris-Foulkes like correction to forces

   POTIM  = 0.5000    time-step for ionic-motion
   TEIN   =    0.0    initial temperature
   TEBEG  =    0.0;   TEEND  =   0.0 temperature during run
   SMASS  =  -3.00    Nose mass-parameter (am)
   estimated Nose-frequenzy (Omega)   =  0.10E-29 period in steps = 0.13E+47 mass=  -0.467E-27a.u.
   SCALEE = 1.0000    scale energy and forces
   NPACO  =    256;   APACO  = 10.0  distance and # of slots for P.C.
   PSTRESS=    0.0 pullay stress

  Mass of Ions in am
   POMASS = 106.42 16.00
  Ionic Valenz
   ZVAL   =  16.00  6.00
  Atomic Wigner-Seitz radii
   RWIGS  =  -1.00 -1.00
  virtual crystal weights 
   VCA    =   1.00  1.00
   NELECT =      56.0000    total number of electrons
   NUPDOWN=      -1.0000    fix difference up-down

 DOS related values:
   EMIN   =  10.00;   EMAX   =-10.00  energy-range for DOS
   EFERMI =   0.00;   METHOD = LEGACY      
   ISMEAR =     0;   SIGMA  =   0.05  broadening in eV -4-tet -1-fermi 0-gaus

 Electronic relaxation 2 (details)
   IALGO  =     38    algorithm
   LDIAG  =      T    sub-space diagonalisation (order eigenvalues)
   LSUBROT=      F    optimize rotation matrix (better conditioning)
   TURBO    =      0    0=normal 1=particle mesh
   IRESTART =      0    0=no restart 2=restart with 2 vectors
   NREBOOT  =      0    no. of reboots
   NMIN     =      0    reboot dimension
   EREF     =   0.00    reference energy to select bands
   IMIX   =      4    mixing-type and parameters
     AMIX     =   0.40;   BMIX     =  1.00
     AMIX_MAG =   1.60;   BMIX_MAG =  1.00
     AMIN     =   0.10
     WC   =   100.;   INIMIX=   1;  MIXPRE=   1;  MAXMIX= -45

 Intra band minimization:
   WEIMIN = 0.0000     energy-eigenvalue tresh-hold
   EBREAK =  0.69E-08  absolut break condition
   DEPER  =   0.30     relativ break condition  

   TIME   =   0.40     timestep for ELM

  volume/ion in A,a.u.               =      10.72        72.37
  Fermi-wavevector in a.u.,A,eV,Ry     =   1.563040  2.953718 33.240331  2.443095
  Thomas-Fermi vector in A             =   2.665870
 
 Write flags
   LWAVE        =      F    write WAVECAR
   LDOWNSAMPLE  =      F    k-point downsampling of WAVECAR
   LCHARG       =      F    write CHGCAR
   LVTOT        =      F    write LOCPOT, total local potential
   LVHAR        =      F    write LOCPOT, Hartree potential only
   WRT_POTENTIAL= false  ! write potential to hdf5 file
   LELF         =      F    write electronic localiz. function (ELF)
   LORBIT       =     11    0 simple, 1 ext, 2 COOP (PROOUT), +10 PAW based schemes


 Dipole corrections
   LMONO      =      F    monopole corrections only (constant potential shift)
   LDIPOL     =      F    correct potential (dipole corrections)
   IDIPOL     =      0    1-x, 2-y, 3-z, 4-all directions 
   EPSILON    =  1.0000000 bulk dielectric constant
   LVACPOTAV  =      F  vacuum potentials using an averaging scheme for the charge density
   VACPOTFLAT =  0.1000000 required flatness to determine vacuum potential
 Exchange correlation treatment:
   GGA     = PE    functional components
   XC_C    = 1    coefficients multiplying the functional components
   LIBXC   =     F    Libxc                    
   VOSKOWN =     0    Vosko Wilk Nusair interpolation
   LHFCALC =     F    Hartree Fock is set to
   LHFONE  =     F    Hartree Fock one center treatment
   AEXX    =    0.0000 exact exchange contribution

 Parameters of functionals:
   PE:
     No parameter
 
 Van der Waals corrections
   IVDW    =    12    specifies the selected vdW correction

 Linear response parameters
   LEPSILON=     F    determine dielectric tensor
   LRPA    =     F    only Hartree local field effects (RPA)
   LNABLA  =     F    use nabla operator in PAW spheres
   LVEL    =     F    velocity operator in full k-point grid
   CSHIFT  =0.1000    complex shift for real part using Kramers Kronig
   OMEGAMAX=  -1.0    maximum frequency
   DEG_THRESHOLD= 0.2000000E-02 threshold for treating states as degnerate
   RTIME   =   -0.100 relaxation time in fs
  (WPLASMAI=    0.000 imaginary part of plasma frequency in eV, 0.658/RTIME)
   DFIELD  = 0.0000000 0.0000000 0.0000000 field for delta impulse in time
 
  Optional k-point grid parameters
   LKPOINTS_OPT  =     F    use optional k-point grid
   KPOINTS_OPT_MODE=     1    mode for optional k-point grid
 
 Orbital magnetization related:
   ORBITALMAG=     F  switch on orbital magnetization
   LCHIMAG   =     F  perturbation theory with respect to B field
   DQ        =  0.001000  dq finite difference perturbation B field
   LLRAUG    =     F  two centre corrections for induced B field
   LBONE     =     F  B-component reconstruction in AE one-centre
   LVGVCALC  =     T  calculate vGv susceptibility
   LVGVAPPL  =     F  apply vGv susceptibility instead of pGv for G=0

 Random number generation:
   RANDOM_GENERATOR = DEFAULT
   PCG_SEED         = not used


--------------------------------------------------------------------------------------------------------


 Static calculation
 charge density and potential will be updated during run
 spin polarized calculation
 Variant of blocked Davidson
 Davidson routine will perform the subspace rotation
 perform sub-space diagonalisation
    after iterative eigenvector-optimisation
 modified Broyden-mixing scheme, WC =      100.0
 initial mixing is a Kerker type mixing with AMIX =  0.4000 and BMIX =      1.0000
 Hartree-type preconditioning will be used
 using additional bands             8
 reciprocal scheme for non local part
 use partial core corrections
 calculate Harris-corrections to forces 
   (improved forces if not selfconsistent)
 use gradient corrections 
 use of overlap-Matrix (Vanderbilt PP)
 Gauss-broadening in eV      SIGMA  =   0.05


--------------------------------------------------------------------------------------------------------


  energy-cutoff  :      520.00
  volume of cell :       64.34
      direct lattice vectors                 reciprocal lattice vectors
     4.522230460  0.000000000  0.000000000     0.221129818 -0.000000000  0.000000000
     0.000000000  4.522230460  0.000000000     0.000000000  0.221129818  0.000000000
     0.000000000  0.000000000  3.146273630    -0.000000000 -0.000000000  0.317836310

  length of vectors
     4.522230460  4.522230460  3.146273630     0.221129818  0.221129818  0.317836310


 
 k-points in units of 2pi/SCALE and weight: Automatic mesh                          
   0.00000000  0.00000000  0.00000000       0.001
   0.02211298  0.00000000  0.00000000       0.003
   0.04422596  0.00000000  0.00000000       0.003
   0.06633895  0.00000000  0.00000000       0.003
   0.08845193  0.00000000  0.00000000       0.003
   0.11056491  0.00000000  0.00000000       0.002
   0.02211298  0.02211298  0.00000000       0.003
   0.04422596  0.02211298  0.00000000       0.007
   0.06633895  0.02211298  0.00000000       0.007
   0.08845193  0.02211298  0.00000000       0.007
   0.11056491  0.02211298  0.00000000       0.003
   0.04422596  0.04422596  0.00000000       0.003
   0.06633895  0.04422596  0.00000000       0.007
   0.08845193  0.04422596  0.00000000       0.007
   0.11056491  0.04422596  0.00000000       0.003
   0.06633895  0.06633895  0.00000000       0.003
   0.08845193  0.06633895  0.00000000       0.007
   0.11056491  0.06633895  0.00000000       0.003
   0.08845193  0.08845193  0.00000000       0.003
   0.11056491  0.08845193  0.00000000       0.003
   0.11056491  0.11056491  0.00000000       0.001
   0.00000000  0.00000000  0.02648636       0.002
   0.02211298  0.00000000  0.02648636       0.007
   0.04422596  0.00000000  0.02648636       0.007
   0.06633895  0.00000000  0.02648636       0.007
   0.08845193  0.00000000  0.02648636       0.007
   0.11056491  0.00000000  0.02648636       0.003
   0.02211298  0.02211298  0.02648636       0.007
   0.04422596  0.02211298  0.02648636       0.013
   0.06633895  0.02211298  0.02648636       0.013
   0.08845193  0.02211298  0.02648636       0.013
   0.11056491  0.02211298  0.02648636       0.007
   0.04422596  0.04422596  0.02648636       0.007
   0.06633895  0.04422596  0.02648636       0.013
   0.08845193  0.04422596  0.02648636       0.013
   0.11056491  0.04422596  0.02648636       0.007
   0.06633895  0.06633895  0.02648636       0.007
   0.08845193  0.06633895  0.02648636       0.013
   0.11056491  0.06633895  0.02648636       0.007
   0.08845193  0.08845193  0.02648636       0.007
   0.11056491  0.08845193  0.02648636       0.007
   0.11056491  0.11056491  0.02648636       0.002
   0.00000000  0.00000000  0.05297272       0.002
   0.02211298  0.00000000  0.05297272       0.007
   0.04422596  0.00000000  0.05297272       0.007
   0.06633895  0.00000000  0.05297272       0.007
   0.08845193  0.00000000  0.05297272       0.007
   0.11056491  0.00000000  0.05297272       0.003
   0.02211298  0.02211298  0.05297272       0.007
   0.04422596  0.02211298  0.05297272       0.013
   0.06633895  0.02211298  0.05297272       0.013
   0.08845193  0.02211298  0.05297272       0.013
   0.11056491  0.02211298  0.05297272       0.007
   0.04422596  0.04422596  0.05297272       0.007
   0.06633895  0.04422596  0.05297272       0.013
   0.08845193  0.04422596  0.05297272       0.013
   0.11056491  0.04422596  0.05297272       0.007
   0.06633895  0.06633895  0.05297272       0.007
   0.08845193  0.06633895  0.05297272       0.013
   0.11056491  0.06633895  0.05297272       0.007
   0.08845193  0.08845193  0.05297272       0.007
   0.11056491  0.08845193  0.05297272       0.007
   0.11056491  0.11056491  0.05297272       0.002
   0.00000000  0.00000000  0.07945908       0.002
   0.02211298  0.00000000  0.07945908       0.007
   0.04422596  0.00000000  0.07945908       0.007
   0.06633895  0.00000000  0.07945908       0.007
   0.08845193  0.00000000  0.07945908       0.007
   0.11056491  0.00000000  0.07945908       0.003
   0.02211298  0.02211298  0.07945908       0.007
   0.04422596  0.02211298  0.07945908       0.013
   0.06633895  0.02211298  0.07945908       0.013
   0.08845193  0.02211298  0.07945908       0.013
   0.11056491  0.02211298  0.07945908       0.007
   0.04422596  0.04422596  0.07945908       0.007
   0.06633895  0.04422596  0.07945908       0.013
   0.08845193  0.04422596  0.07945908       0.013
   0.11056491  0.04422596  0.07945908       0.007
   0.06633895  0.06633895  0.07945908       0.007
   0.08845193  0.06633895  0.07945908       0.013
   0.11056491  0.06633895  0.07945908       0.007
   0.08845193  0.08845193  0.07945908       0.007
   0.11056491  0.08845193  0.07945908       0.007
   0.11056491  0.11056491  0.07945908       0.002
   0.00000000  0.00000000  0.10594544       0.002
   0.02211298  0.00000000  0.10594544       0.007
   0.04422596  0.00000000  0.10594544       0.007
   0.06633895  0.00000000  0.10594544       0.007
   0.08845193  0.00000000  0.10594544       0.007
   0.11056491  0.00000000  0.10594544       0.003
   0.02211298  0.02211298  0.10594544       0.007
   0.04422596  0.02211298  0.10594544       0.013
   0.06633895  0.02211298  0.10594544       0.013
   0.08845193  0.02211298  0.10594544       0.013
   0.11056491  0.02211298  0.10594544       0.007
   0.04422596  0.04422596  0.10594544       0.007
   0.06633895  0.04422596  0.10594544       0.013
   0.08845193  0.04422596  0.10594544       0.013
   0.11056491  0.04422596  0.10594544       0.007
   0.06633895  0.06633895  0.10594544       0.007
   0.08845193  0.06633895  0.10594544       0.013
   0.11056491  0.06633895  0.10594544       0.007
   0.08845193  0.08845193  0.10594544       0.007
   0.11056491  0.08845193  0.10594544       0.007
   0.11056491  0.11056491  0.10594544       0.002
   0.00000000  0.00000000  0.13243180       0.002
   0.02211298  0.00000000  0.13243180       0.007
   0.04422596  0.00000000  0.13243180       0.007
   0.06633895  0.00000000  0.13243180       0.007
   0.08845193  0.00000000  0.13243180       0.007
   0.11056491  0.00000000  0.13243180       0.003
   0.02211298  0.02211298  0.13243180       0.007
   0.04422596  0.02211298  0.13243180       0.013
   0.06633895  0.02211298  0.13243180       0.013
   0.08845193  0.02211298  0.13243180       0.013
   0.11056491  0.02211298  0.13243180       0.007
   0.04422596  0.04422596  0.13243180       0.007
   0.06633895  0.04422596  0.13243180       0.013
   0.08845193  0.04422596  0.13243180       0.013
   0.11056491  0.04422596  0.13243180       0.007
   0.06633895  0.06633895  0.13243180       0.007
   0.08845193  0.06633895  0.13243180       0.013
   0.11056491  0.06633895  0.13243180       0.007
   0.08845193  0.08845193  0.13243180       0.007
   0.11056491  0.08845193  0.13243180       0.007
   0.11056491  0.11056491  0.13243180       0.002
   0.00000000  0.00000000  0.15891815       0.001
   0.02211298  0.00000000  0.15891815       0.003
   0.04422596  0.00000000  0.15891815       0.003
   0.06633895  0.00000000  0.15891815       0.003
   0.08845193  0.00000000  0.15891815       0.003
   0.11056491  0.00000000  0.15891815       0.002
   0.02211298  0.02211298  0.15891815       0.003
   0.04422596  0.02211298  0.15891815       0.007
   0.06633895  0.02211298  0.15891815       0.007
   0.08845193  0.02211298  0.15891815       0.007
   0.11056491  0.02211298  0.15891815       0.003
   0.04422596  0.04422596  0.15891815       0.003
   0.06633895  0.04422596  0.15891815       0.007
   0.08845193  0.04422596  0.15891815       0.007
   0.11056491  0.04422596  0.15891815       0.003
   0.06633895  0.06633895  0.15891815       0.003
   0.08845193  0.06633895  0.15891815       0.007
   0.11056491  0.06633895  0.15891815       0.003
   0.08845193  0.08845193  0.15891815       0.003
   0.11056491  0.08845193  0.15891815       0.003
   0.11056491  0.11056491  0.15891815       0.001
 
 k-points in reciprocal lattice and weights: Automatic mesh                          
   0.00000000  0.00000000  0.00000000       0.001
   0.10000000  0.00000000  0.00000000       0.003
   0.20000000  0.00000000  0.00000000       0.003
   0.30000000  0.00000000  0.00000000       0.003
   0.40000000  0.00000000  0.00000000       0.003
   0.50000000  0.00000000  0.00000000       0.002
   0.10000000  0.10000000  0.00000000       0.003
   0.20000000  0.10000000  0.00000000       0.007
   0.30000000  0.10000000  0.00000000       0.007
   0.40000000  0.10000000  0.00000000       0.007
   0.50000000  0.10000000  0.00000000       0.003
   0.20000000  0.20000000  0.00000000       0.003
   0.30000000  0.20000000  0.00000000       0.007
   0.40000000  0.20000000  0.00000000       0.007
   0.50000000  0.20000000  0.00000000       0.003
   0.30000000  0.30000000  0.00000000       0.003
   0.40000000  0.30000000  0.00000000       0.007
   0.50000000  0.30000000  0.00000000       0.003
   0.40000000  0.40000000  0.00000000       0.003
   0.50000000  0.40000000  0.00000000       0.003
   0.50000000  0.50000000  0.00000000       0.001
   0.00000000  0.00000000  0.08333333       0.002
   0.10000000  0.00000000  0.08333333       0.007
   0.20000000  0.00000000  0.08333333       0.007
   0.30000000  0.00000000  0.08333333       0.007
   0.40000000  0.00000000  0.08333333       0.007
   0.50000000  0.00000000  0.08333333       0.003
   0.10000000  0.10000000  0.08333333       0.007
   0.20000000  0.10000000  0.08333333       0.013
   0.30000000  0.10000000  0.08333333       0.013
   0.40000000  0.10000000  0.08333333       0.013
   0.50000000  0.10000000  0.08333333       0.007
   0.20000000  0.20000000  0.08333333       0.007
   0.30000000  0.20000000  0.08333333       0.013
   0.40000000  0.20000000  0.08333333       0.013
   0.50000000  0.20000000  0.08333333       0.007
   0.30000000  0.30000000  0.08333333       0.007
   0.40000000  0.30000000  0.08333333       0.013
   0.50000000  0.30000000  0.08333333       0.007
   0.40000000  0.40000000  0.08333333       0.007
   0.50000000  0.40000000  0.08333333       0.007
   0.50000000  0.50000000  0.08333333       0.002
   0.00000000  0.00000000  0.16666667       0.002
   0.10000000  0.00000000  0.16666667       0.007
   0.20000000  0.00000000  0.16666667       0.007
   0.30000000  0.00000000  0.16666667       0.007
   0.40000000  0.00000000  0.16666667       0.007
   0.50000000  0.00000000  0.16666667       0.003
   0.10000000  0.10000000  0.16666667       0.007
   0.20000000  0.10000000  0.16666667       0.013
   0.30000000  0.10000000  0.16666667       0.013
   0.40000000  0.10000000  0.16666667       0.013
   0.50000000  0.10000000  0.16666667       0.007
   0.20000000  0.20000000  0.16666667       0.007
   0.30000000  0.20000000  0.16666667       0.013
   0.40000000  0.20000000  0.16666667       0.013
   0.50000000  0.20000000  0.16666667       0.007
   0.30000000  0.30000000  0.16666667       0.007
   0.40000000  0.30000000  0.16666667       0.013
   0.50000000  0.30000000  0.16666667       0.007
   0.40000000  0.40000000  0.16666667       0.007
   0.50000000  0.40000000  0.16666667       0.007
   0.50000000  0.50000000  0.16666667       0.002
   0.00000000  0.00000000  0.25000000       0.002
   0.10000000  0.00000000  0.25000000       0.007
   0.20000000  0.00000000  0.25000000       0.007
   0.30000000  0.00000000  0.25000000       0.007
   0.40000000  0.00000000  0.25000000       0.007
   0.50000000  0.00000000  0.25000000       0.003
   0.10000000  0.10000000  0.25000000       0.007
   0.20000000  0.10000000  0.25000000       0.013
   0.30000000  0.10000000  0.25000000       0.013
   0.40000000  0.10000000  0.25000000       0.013
   0.50000000  0.10000000  0.25000000       0.007
   0.20000000  0.20000000  0.25000000       0.007
   0.30000000  0.20000000  0.25000000       0.013
   0.40000000  0.20000000  0.25000000       0.013
   0.50000000  0.20000000  0.25000000       0.007
   0.30000000  0.30000000  0.25000000       0.007
   0.40000000  0.30000000  0.25000000       0.013
   0.50000000  0.30000000  0.25000000       0.007
   0.40000000  0.40000000  0.25000000       0.007
   0.50000000  0.40000000  0.25000000       0.007
   0.50000000  0.50000000  0.25000000       0.002
   0.00000000  0.00000000  0.33333333       0.002
   0.10000000  0.00000000  0.33333333       0.007
   0.20000000  0.00000000  0.33333333       0.007
   0.30000000  0.00000000  0.33333333       0.007
   0.40000000  0.00000000  0.33333333       0.007
   0.50000000  0.00000000  0.33333333       0.003
   0.10000000  0.10000000  0.33333333       0.007
   0.20000000  0.10000000  0.33333333       0.013
   0.30000000  0.10000000  0.33333333       0.013
   0.40000000  0.10000000  0.33333333       0.013
   0.50000000  0.10000000  0.33333333       0.007
   0.20000000  0.20000000  0.33333333       0.007
   0.30000000  0.20000000  0.33333333       0.013
   0.40000000  0.20000000  0.33333333       0.013
   0.50000000  0.20000000  0.33333333       0.007
   0.30000000  0.30000000  0.33333333       0.007
   0.40000000  0.30000000  0.33333333       0.013
   0.50000000  0.30000000  0.33333333       0.007
   0.40000000  0.40000000  0.33333333       0.007
   0.50000000  0.40000000  0.33333333       0.007
   0.50000000  0.50000000  0.33333333       0.002
   0.00000000  0.00000000  0.41666667       0.002
   0.10000000  0.00000000  0.41666667       0.007
   0.20000000  0.00000000  0.41666667       0.007
   0.30000000  0.00000000  0.41666667       0.007
   0.40000000  0.00000000  0.41666667       0.007
   0.50000000  0.00000000  0.41666667       0.003
   0.10000000  0.10000000  0.41666667       0.007
   0.20000000  0.10000000  0.41666667       0.013
   0.30000000  0.10000000  0.41666667       0.013
   0.40000000  0.10000000  0.41666667       0.013
   0.50000000  0.10000000  0.41666667       0.007
   0.20000000  0.20000000  0.41666667       0.007
   0.30000000  0.20000000  0.41666667       0.013
   0.40000000  0.20000000  0.41666667       0.013
   0.50000000  0.20000000  0.41666667       0.007
   0.30000000  0.30000000  0.41666667       0.007
   0.40000000  0.30000000  0.41666667       0.013
   0.50000000  0.30000000  0.41666667       0.007
   0.40000000  0.40000000  0.41666667       0.007
   0.50000000  0.40000000  0.41666667       0.007
   0.50000000  0.50000000  0.41666667       0.002
   0.00000000  0.00000000  0.50000000       0.001
   0.10000000  0.00000000  0.50000000       0.003
   0.20000000  0.00000000  0.50000000       0.003
   0.30000000  0.00000000  0.50000000       0.003
   0.40000000  0.00000000  0.50000000       0.003
   0.50000000  0.00000000  0.50000000       0.002
   0.10000000  0.10000000  0.50000000       0.003
   0.20000000  0.10000000  0.50000000       0.007
   0.30000000  0.10000000  0.50000000       0.007
   0.40000000  0.10000000  0.50000000       0.007
   0.50000000  0.10000000  0.50000000       0.003
   0.20000000  0.20000000  0.50000000       0.003
   0.30000000  0.20000000  0.50000000       0.007
   0.40000000  0.20000000  0.50000000       0.007
   0.50000000  0.20000000  0.50000000       0.003
   0.30000000  0.30000000  0.50000000       0.003
   0.40000000  0.30000000  0.50000000       0.007
   0.50000000  0.30000000  0.50000000       0.003
   0.40000000  0.40000000  0.50000000       0.003
   0.50000000  0.40000000  0.50000000       0.003
   0.50000000  0.50000000  0.50000000       0.001
 
 position of ions in fractional coordinates (direct lattice) 
   0.50000000  0.50000000  0.50000000
   0.00000000  0.00000000  0.00000000
   0.80815192  0.19184808  0.50000000
   0.19184808  0.80815192  0.50000000
   0.30815192  0.30815192  0.00000000
   0.69184808  0.69184808  0.00000000
 
 position of ions in cartesian coordinates  (Angst):
   2.26111523  2.26111523  1.57313682
   0.00000000  0.00000000  0.00000000
   3.65464923  0.86758123  1.57313682
   0.86758123  3.65464923  1.57313682
   1.39353400  1.39353400  0.00000000
   3.12869646  3.12869646  0.00000000
 


--------------------------------------------------------------------------------------------------------


 k-point     1 :   0.0000 0.0000 0.0000  plane waves:    1751
 k-point     2 :   0.1000 0.0000 0.0000  plane waves:    1741
 k-point     3 :   0.2000 0.0000 0.0000  plane waves:    1737
 k-point     4 :   0.3000 0.0000 0.0000  plane waves:    1731
 k-point     5 :   0.4000 0.0000 0.0000  plane waves:    1735
 k-point     6 :   0.5000 0.0000 0.0000  plane waves:    1740
 k-point     7 :   0.1000 0.1000 0.0000  plane waves:    1738
 k-point     8 :   0.2000 0.1000 0.0000  plane waves:    1739
 k-point     9 :   0.3000 0.1000 0.0000  plane waves:    1727
 k-point    10 :   0.4000 0.1000 0.0000  plane waves:    1733
 k-point    11 :   0.5000 0.1000 0.0000  plane waves:    1730
 k-point    12 :   0.2000 0.2000 0.0000  plane waves:    1736
 k-point    13 :   0.3000 0.2000 0.0000  plane waves:    1725
 k-point    14 :   0.4000 0.2000 0.0000  plane waves:    1722
 k-point    15 :   0.5000 0.2000 0.0000  plane waves:    1714
 k-point    16 :   0.3000 0.3000 0.0000  plane waves:    1730
 k-point    17 :   0.4000 0.3000 0.0000  plane waves:    1720
 k-point    18 :   0.5000 0.3000 0.0000  plane waves:    1716
 k-point    19 :   0.4000 0.4000 0.0000  plane waves:    1714
 k-point    20 :   0.5000 0.4000 0.0000  plane waves:    1724
 k-point    21 :   0.5000 0.5000 0.0000  plane waves:    1720
 k-point    22 :   0.0000 0.0000 0.0833  plane waves:    1747
 k-point    23 :   0.1000 0.0000 0.0833  plane waves:    1731
 k-point    24 :   0.2000 0.0000 0.0833  plane waves:    1730
 k-point    25 :   0.3000 0.0000 0.0833  plane waves:    1727
 k-point    26 :   0.4000 0.0000 0.0833  plane waves:    1730
 k-point    27 :   0.5000 0.0000 0.0833  plane waves:    1730
 k-point    28 :   0.1000 0.1000 0.0833  plane waves:    1730
 k-point    29 :   0.2000 0.1000 0.0833  plane waves:    1739
 k-point    30 :   0.3000 0.1000 0.0833  plane waves:    1735
 k-point    31 :   0.4000 0.1000 0.0833  plane waves:    1731
 k-point    32 :   0.5000 0.1000 0.0833  plane waves:    1736
 k-point    33 :   0.2000 0.2000 0.0833  plane waves:    1729
 k-point    34 :   0.3000 0.2000 0.0833  plane waves:    1731
 k-point    35 :   0.4000 0.2000 0.0833  plane waves:    1730
 k-point    36 :   0.5000 0.2000 0.0833  plane waves:    1730
 k-point    37 :   0.3000 0.3000 0.0833  plane waves:    1725
 k-point    38 :   0.4000 0.3000 0.0833  plane waves:    1718
 k-point    39 :   0.5000 0.3000 0.0833  plane waves:    1726
 k-point    40 :   0.4000 0.4000 0.0833  plane waves:    1720
 k-point    41 :   0.5000 0.4000 0.0833  plane waves:    1718
 k-point    42 :   0.5000 0.5000 0.0833  plane waves:    1720
 k-point    43 :   0.0000 0.0000 0.1667  plane waves:    1720
 k-point    44 :   0.1000 0.0000 0.1667  plane waves:    1726
 k-point    45 :   0.2000 0.0000 0.1667  plane waves:    1731
 k-point    46 :   0.3000 0.0000 0.1667  plane waves:    1725
 k-point    47 :   0.4000 0.0000 0.1667  plane waves:    1721
 k-point    48 :   0.5000 0.0000 0.1667  plane waves:    1732
 k-point    49 :   0.1000 0.1000 0.1667  plane waves:    1728
 k-point    50 :   0.2000 0.1000 0.1667  plane waves:    1727
 k-point    51 :   0.3000 0.1000 0.1667  plane waves:    1732
 k-point    52 :   0.4000 0.1000 0.1667  plane waves:    1728
 k-point    53 :   0.5000 0.1000 0.1667  plane waves:    1732
 k-point    54 :   0.2000 0.2000 0.1667  plane waves:    1729
 k-point    55 :   0.3000 0.2000 0.1667  plane waves:    1735
 k-point    56 :   0.4000 0.2000 0.1667  plane waves:    1732
 k-point    57 :   0.5000 0.2000 0.1667  plane waves:    1726
 k-point    58 :   0.3000 0.3000 0.1667  plane waves:    1731
 k-point    59 :   0.4000 0.3000 0.1667  plane waves:    1724
 k-point    60 :   0.5000 0.3000 0.1667  plane waves:    1734
 k-point    61 :   0.4000 0.4000 0.1667  plane waves:    1721
 k-point    62 :   0.5000 0.4000 0.1667  plane waves:    1722
 k-point    63 :   0.5000 0.5000 0.1667  plane waves:    1712
 k-point    64 :   0.0000 0.0000 0.2500  plane waves:    1720
 k-point    65 :   0.1000 0.0000 0.2500  plane waves:    1731
 k-point    66 :   0.2000 0.0000 0.2500  plane waves:    1727
 k-point    67 :   0.3000 0.0000 0.2500  plane waves:    1735
 k-point    68 :   0.4000 0.0000 0.2500  plane waves:    1730
 k-point    69 :   0.5000 0.0000 0.2500  plane waves:    1726
 k-point    70 :   0.1000 0.1000 0.2500  plane waves:    1736
 k-point    71 :   0.2000 0.1000 0.2500  plane waves:    1727
 k-point    72 :   0.3000 0.1000 0.2500  plane waves:    1737
 k-point    73 :   0.4000 0.1000 0.2500  plane waves:    1733
 k-point    74 :   0.5000 0.1000 0.2500  plane waves:    1730
 k-point    75 :   0.2000 0.2000 0.2500  plane waves:    1736
 k-point    76 :   0.3000 0.2000 0.2500  plane waves:    1738
 k-point    77 :   0.4000 0.2000 0.2500  plane waves:    1734
 k-point    78 :   0.5000 0.2000 0.2500  plane waves:    1740
 k-point    79 :   0.3000 0.3000 0.2500  plane waves:    1735
 k-point    80 :   0.4000 0.3000 0.2500  plane waves:    1731
 k-point    81 :   0.5000 0.3000 0.2500  plane waves:    1730
 k-point    82 :   0.4000 0.4000 0.2500  plane waves:    1723
 k-point    83 :   0.5000 0.4000 0.2500  plane waves:    1724
 k-point    84 :   0.5000 0.5000 0.2500  plane waves:    1724
 k-point    85 :   0.0000 0.0000 0.3333  plane waves:    1724
 k-point    86 :   0.1000 0.0000 0.3333  plane waves:    1734
 k-point    87 :   0.2000 0.0000 0.3333  plane waves:    1743
 k-point    88 :   0.3000 0.0000 0.3333  plane waves:    1740
 k-point    89 :   0.4000 0.0000 0.3333  plane waves:    1747
 k-point    90 :   0.5000 0.0000 0.3333  plane waves:    1742
 k-point    91 :   0.1000 0.1000 0.3333  plane waves:    1733
 k-point    92 :   0.2000 0.1000 0.3333  plane waves:    1739
 k-point    93 :   0.3000 0.1000 0.3333  plane waves:    1741
 k-point    94 :   0.4000 0.1000 0.3333  plane waves:    1737
 k-point    95 :   0.5000 0.1000 0.3333  plane waves:    1730
 k-point    96 :   0.2000 0.2000 0.3333  plane waves:    1732
 k-point    97 :   0.3000 0.2000 0.3333  plane waves:    1737
 k-point    98 :   0.4000 0.2000 0.3333  plane waves:    1731
 k-point    99 :   0.5000 0.2000 0.3333  plane waves:    1734
 k-point   100 :   0.3000 0.3000 0.3333  plane waves:    1734
 k-point   101 :   0.4000 0.3000 0.3333  plane waves:    1733
 k-point   102 :   0.5000 0.3000 0.3333  plane waves:    1728
 k-point   103 :   0.4000 0.4000 0.3333  plane waves:    1728
 k-point   104 :   0.5000 0.4000 0.3333  plane waves:    1726
 k-point   105 :   0.5000 0.5000 0.3333  plane waves:    1716
 k-point   106 :   0.0000 0.0000 0.4167  plane waves:    1756
 k-point   107 :   0.1000 0.0000 0.4167  plane waves:    1747
 k-point   108 :   0.2000 0.0000 0.4167  plane waves:    1746
 k-point   109 :   0.3000 0.0000 0.4167  plane waves:    1749
 k-point   110 :   0.4000 0.0000 0.4167  plane waves:    1731
 k-point   111 :   0.5000 0.0000 0.4167  plane waves:    1750
 k-point   112 :   0.1000 0.1000 0.4167  plane waves:    1736
 k-point   113 :   0.2000 0.1000 0.4167  plane waves:    1740
 k-point   114 :   0.3000 0.1000 0.4167  plane waves:    1744
 k-point   115 :   0.4000 0.1000 0.4167  plane waves:    1738
 k-point   116 :   0.5000 0.1000 0.4167  plane waves:    1736
 k-point   117 :   0.2000 0.2000 0.4167  plane waves:    1742
 k-point   118 :   0.3000 0.2000 0.4167  plane waves:    1732
 k-point   119 :   0.4000 0.2000 0.4167  plane waves:    1730
 k-point   120 :   0.5000 0.2000 0.4167  plane waves:    1738
 k-point   121 :   0.3000 0.3000 0.4167  plane waves:    1730
 k-point   122 :   0.4000 0.3000 0.4167  plane waves:    1732
 k-point   123 :   0.5000 0.3000 0.4167  plane waves:    1732
 k-point   124 :   0.4000 0.4000 0.4167  plane waves:    1731
 k-point   125 :   0.5000 0.4000 0.4167  plane waves:    1724
 k-point   126 :   0.5000 0.5000 0.4167  plane waves:    1728
 k-point   127 :   0.0000 0.0000 0.5000  plane waves:    1740
 k-point   128 :   0.1000 0.0000 0.5000  plane waves:    1736
 k-point   129 :   0.2000 0.0000 0.5000  plane waves:    1740
 k-point   130 :   0.3000 0.0000 0.5000  plane waves:    1746
 k-point   131 :   0.4000 0.0000 0.5000  plane waves:    1748
 k-point   132 :   0.5000 0.0000 0.5000  plane waves:    1732
 k-point   133 :   0.1000 0.1000 0.5000  plane waves:    1740
 k-point   134 :   0.2000 0.1000 0.5000  plane waves:    1736
 k-point   135 :   0.3000 0.1000 0.5000  plane waves:    1744
 k-point   136 :   0.4000 0.1000 0.5000  plane waves:    1742
 k-point   137 :   0.5000 0.1000 0.5000  plane waves:    1740
 k-point   138 :   0.2000 0.2000 0.5000  plane waves:    1744
 k-point   139 :   0.3000 0.2000 0.5000  plane waves:    1736
 k-point   140 :   0.4000 0.2000 0.5000  plane waves:    1728
 k-point   141 :   0.5000 0.2000 0.5000  plane waves:    1732
 k-point   142 :   0.3000 0.3000 0.5000  plane waves:    1734
 k-point   143 :   0.4000 0.3000 0.5000  plane waves:    1736
 k-point   144 :   0.5000 0.3000 0.5000  plane waves:    1744
 k-point   145 :   0.4000 0.4000 0.5000  plane waves:    1724
 k-point   146 :   0.5000 0.4000 0.5000  plane waves:    1728
 k-point   147 :   0.5000 0.5000 0.5000  plane waves:    1728

 maximum and minimum number of plane-waves per node :      1756     1712

 maximum number of plane-waves:      1756
 maximum index in each direction: 
   IXMAX=    8   IYMAX=    8   IZMAX=    5
   IXMIN=   -8   IYMIN=   -8   IZMIN=   -6


 serial   3D FFT for wavefunctions
 parallel 3D FFT for charge:
    minimum data exchange during FFTs selected (reduces bandwidth)


 total amount of memory used by VASP MPI-rank0   198985. kBytes
=======================================================================

   base      :      30000. kBytes
   nonl-proj :      74510. kBytes
   fftplans  :       9397. kBytes
   grid      :       7672. kBytes
   one-center:        186. kBytes
   wavefun   :      77220. kBytes
 
     INWAV:  cpu time      0.0000: real time      0.0001
 Broyden mixing: mesh for mixing (old mesh)
   NGX = 17   NGY = 17   NGZ = 11
  (NGX  = 72   NGY  = 72   NGZ  = 48)
  gives a total of   3179 points

 initial charge density was supplied:
 charge density of overlapping atoms calculated
 number of electron      56.0000000 magnetization       6.0000000
 keeping initial charge density in first step


--------------------------------------------------------------------------------------------------------


 Maximum index for augmentation-charges         37643 (set IRDMAX)


--------------------------------------------------------------------------------------------------------


 First call to EWALD:  gamma=   0.442
 Maximum number of real-space cells 2x 2x 3
 Maximum number of reciprocal cells 3x 3x 2

    FEWALD:  cpu time      0.0005: real time      0.0005


--------------------------------------- Ionic step        1  -------------------------------------------




--------------------------------------- Iteration      1(   1)  ---------------------------------------


    POTLOK:  cpu time      0.0523: real time      0.0524
    SETDIJ:  cpu time      0.6766: real time      0.6771
     EDDAV:  cpu time     12.0917: real time     12.1637
       DOS:  cpu time      0.0021: real time      0.0021
    --------------------------------------------
      LOOP:  cpu time     12.8227: real time     12.8952

 eigenvalue-minimisations  : 21928
 total energy-change (2. order) : 0.5855033E+03  (-0.3423937E+04)
 number of electron      56.0000000 magnetization       6.0000000
 augmentation part       56.0000000 magnetization       6.0000000

 Free energy of the ion-electron system (eV)
  ---------------------------------------------------
  alpha Z        PSCENC =       302.45619847
  Ewald energy   TEWEN  =     -5214.09126118
  -Hartree energ DENC   =     -1860.07067583
  -exchange      EXHF   =         0.00000000
  -V(xc)+E(xc)   XCENC  =       277.13147676
  PAW double counting   =      5901.46612542    -5850.99266113
  entropy T*S    EENTRO =        -0.00143659
  eigenvalues    EBANDS =        57.08112305
  atomic energy  EATOM  =      6972.52437674
  Solvation  Ediel_sol  =         0.00000000
  ---------------------------------------------------
  free energy    TOTEN  =       585.50326571 eV

  energy without entropy =      585.50470229  energy(sigma->0) =      585.50398400


--------------------------------------------------------------------------------------------------------




--------------------------------------- Iteration      1(   2)  ---------------------------------------


     EDDAV:  cpu time     13.3023: real time     13.3810
       DOS:  cpu time      0.0014: real time      0.0014
    --------------------------------------------
      LOOP:  cpu time     13.3037: real time     13.3824

 eigenvalue-minimisations  : 24684
 total energy-change (2. order) :-0.5932468E+03  (-0.5717421E+03)
 number of electron      56.0000000 magnetization       6.0000000
 augmentation part       56.0000000 magnetization       6.0000000

 Free energy of the ion-electron system (eV)
  ---------------------------------------------------
  alpha Z        PSCENC =       302.45619847
  Ewald energy   TEWEN  =     -5214.09126118
  -Hartree energ DENC   =     -1860.07067583
  -exchange      EXHF   =         0.00000000
  -V(xc)+E(xc)   XCENC  =       277.13147676
  PAW double counting   =      5901.46612542    -5850.99266113
  entropy T*S    EENTRO =        -0.00340258
  eigenvalues    EBANDS =      -536.16375842
  atomic energy  EATOM  =      6972.52437674
  Solvation  Ediel_sol  =         0.00000000
  ---------------------------------------------------
  free energy    TOTEN  =        -7.74358176 eV

  energy without entropy =       -7.74017918  energy(sigma->0) =       -7.74188047


--------------------------------------------------------------------------------------------------------




--------------------------------------- Iteration      1(   3)  ---------------------------------------


     EDDAV:  cpu time     10.9710: real time     11.2003
       DOS:  cpu time      0.0014: real time      0.0014
    --------------------------------------------
      LOOP:  cpu time     10.9725: real time     11.2017

 eigenvalue-minimisations  : 23168
 total energy-change (2. order) :-0.3282720E+02  (-0.3246840E+02)
 number of electron      56.0000000 magnetization       6.0000000
 augmentation part       56.0000000 magnetization       6.0000000

 Free energy of the ion-electron system (eV)
  ---------------------------------------------------
  alpha Z        PSCENC =       302.45619847
  Ewald energy   TEWEN  =     -5214.09126118
  -Hartree energ DENC   =     -1860.07067583
  -exchange      EXHF   =         0.00000000
  -V(xc)+E(xc)   XCENC  =       277.13147676
  PAW double counting   =      5901.46612542    -5850.99266113
  entropy T*S    EENTRO =        -0.00325846
  eigenvalues    EBANDS =      -568.99109998
  atomic energy  EATOM  =      6972.52437674
  Solvation  Ediel_sol  =         0.00000000
  ---------------------------------------------------
  free energy    TOTEN  =       -40.57077920 eV

  energy without entropy =      -40.56752074  energy(sigma->0) =      -40.56914997


--------------------------------------------------------------------------------------------------------




--------------------------------------- Iteration      1(   4)  ---------------------------------------


     EDDAV:  cpu time     10.5575: real time     10.5744
       DOS:  cpu time      0.0014: real time      0.0014
    --------------------------------------------
      LOOP:  cpu time     10.5589: real time     10.5759

 eigenvalue-minimisations  : 23504
 total energy-change (2. order) :-0.4205843E+00  (-0.4199949E+00)
 number of electron      56.0000000 magnetization       6.0000000
 augmentation part       56.0000000 magnetization       6.0000000

 Free energy of the ion-electron system (eV)
  ---------------------------------------------------
  alpha Z        PSCENC =       302.45619847
  Ewald energy   TEWEN  =     -5214.09126118
  -Hartree energ DENC   =     -1860.07067583
  -exchange      EXHF   =         0.00000000
  -V(xc)+E(xc)   XCENC  =       277.13147676
  PAW double counting   =      5901.46612542    -5850.99266113
  entropy T*S    EENTRO =        -0.00326260
  eigenvalues    EBANDS =      -569.41168016
  atomic energy  EATOM  =      6972.52437674
  Solvation  Ediel_sol  =         0.00000000
  ---------------------------------------------------
  free energy    TOTEN  =       -40.99136352 eV

  energy without entropy =      -40.98810092  energy(sigma->0) =      -40.98973222


--------------------------------------------------------------------------------------------------------




--------------------------------------- Iteration      1(   5)  ---------------------------------------


     EDDAV:  cpu time     10.2904: real time     10.2908
       DOS:  cpu time      0.0014: real time      0.0014
    CHARGE:  cpu time      0.8156: real time      0.8156
    MIXING:  cpu time      0.0016: real time      0.0016
    --------------------------------------------
      LOOP:  cpu time     11.1091: real time     11.1095

 eigenvalue-minimisations  : 22732
 total energy-change (2. order) :-0.4721542E-02  (-0.4721067E-02)
 number of electron      56.0000002 magnetization       0.0923086
 augmentation part       16.7790536 magnetization      -0.0605210

 Broyden mixing:
  rms(total) = 0.28112E+01    rms(broyden)= 0.28107E+01
  rms(prec ) = 0.53306E+01
  weight for this iteration     100.00

 Free energy of the ion-electron system (eV)
  ---------------------------------------------------
  alpha Z        PSCENC =       302.45619847
  Ewald energy   TEWEN  =     -5214.09126118
  -Hartree energ DENC   =     -1860.07067583
  -exchange      EXHF   =         0.00000000
  -V(xc)+E(xc)   XCENC  =       277.13147676
  PAW double counting   =      5901.46612542    -5850.99266113
  entropy T*S    EENTRO =        -0.00326443
  eigenvalues    EBANDS =      -569.41639987
  atomic energy  EATOM  =      6972.52437674
  Solvation  Ediel_sol  =         0.00000000
  ---------------------------------------------------
  free energy    TOTEN  =       -40.99608506 eV

  energy without entropy =      -40.99282063  energy(sigma->0) =      -40.99445284


--------------------------------------------------------------------------------------------------------




--------------------------------------- Iteration      1(   6)  ---------------------------------------


    POTLOK:  cpu time      0.0474: real time      0.0475
    SETDIJ:  cpu time      0.5829: real time      0.5829
     EDDAV:  cpu time     10.2945: real time     10.2977
       DOS:  cpu time      0.0015: real time      0.0015
    CHARGE:  cpu time      0.8441: real time      0.8442
    MIXING:  cpu time      0.0016: real time      0.0016
    --------------------------------------------
      LOOP:  cpu time     11.7719: real time     11.7753

 eigenvalue-minimisations  : 22764
 total energy-change (2. order) : 0.5361183E+01  (-0.5167987E+01)
 number of electron      56.0000002 magnetization      -0.2665186
 augmentation part       18.3614008 magnetization       0.0179061

 Broyden mixing:
  rms(total) = 0.15564E+01    rms(broyden)= 0.15556E+01
  rms(prec ) = 0.33502E+01
  weight for this iteration     100.00

 eigenvalues of (default mixing * dielectric matrix)
  average eigenvalue GAMMA=   0.7310
  0.7310

 Free energy of the ion-electron system (eV)
  ---------------------------------------------------
  alpha Z        PSCENC =       302.45619847
  Ewald energy   TEWEN  =     -5214.09126118
  -Hartree energ DENC   =     -1784.48354422
  -exchange      EXHF   =         0.00000000
  -V(xc)+E(xc)   XCENC  =       276.15830558
  PAW double counting   =      6060.96644593    -6024.79882973
  entropy T*S    EENTRO =        -0.00820025
  eigenvalues    EBANDS =      -624.35839319
  atomic energy  EATOM  =      6972.52437674
  Solvation  Ediel_sol  =         0.00000000
  ---------------------------------------------------
  free energy    TOTEN  =       -35.63490185 eV

  energy without entropy =      -35.62670160  energy(sigma->0) =      -35.63080173


--------------------------------------------------------------------------------------------------------




--------------------------------------- Iteration      1(   7)  ---------------------------------------


    POTLOK:  cpu time      0.0474: real time      0.0474
    SETDIJ:  cpu time      0.5864: real time      0.5864
     EDDAV:  cpu time     10.6069: real time     10.6140
       DOS:  cpu time      0.0014: real time      0.0014
    CHARGE:  cpu time      0.8195: real time      0.8198
    MIXING:  cpu time      0.0020: real time      0.0020
    --------------------------------------------
      LOOP:  cpu time     12.0635: real time     12.0710

 eigenvalue-minimisations  : 22308
 total energy-change (2. order) : 0.3439439E+01  (-0.1539810E+01)
 number of electron      56.0000002 magnetization      -0.3068959
 augmentation part       17.4121560 magnetization      -0.1643698

 Broyden mixing:
  rms(total) = 0.53763E+00    rms(broyden)= 0.53744E+00
  rms(prec ) = 0.84006E+00
  weight for this iteration     100.00

 eigenvalues of (default mixing * dielectric matrix)
  average eigenvalue GAMMA=   0.7260
  0.9168  0.5353

 Free energy of the ion-electron system (eV)
  ---------------------------------------------------
  alpha Z        PSCENC =       302.45619847
  Ewald energy   TEWEN  =     -5214.09126118
  -Hartree energ DENC   =     -1819.65240574
  -exchange      EXHF   =         0.00000000
  -V(xc)+E(xc)   XCENC  =       276.57831188
  PAW double counting   =      6242.44383163    -6203.93228062
  entropy T*S    EENTRO =        -0.00444219
  eigenvalues    EBANDS =      -588.51779174
  atomic energy  EATOM  =      6972.52437674
  Solvation  Ediel_sol  =         0.00000000
  ---------------------------------------------------
  free energy    TOTEN  =       -32.19546276 eV

  energy without entropy =      -32.19102057  energy(sigma->0) =      -32.19324166


--------------------------------------------------------------------------------------------------------




--------------------------------------- Iteration      1(   8)  ---------------------------------------


    POTLOK:  cpu time      0.0472: real time      0.0473
    SETDIJ:  cpu time      0.6555: real time      0.6555
     EDDAV:  cpu time     12.0342: real time     12.0367
       DOS:  cpu time      0.0014: real time      0.0014
    CHARGE:  cpu time      0.8200: real time      0.8201
    MIXING:  cpu time      0.0017: real time      0.0017
    --------------------------------------------
      LOOP:  cpu time     13.5601: real time     13.5627

 eigenvalue-minimisations  : 22524
 total energy-change (2. order) : 0.5305688E-01  (-0.1274385E+00)
 number of electron      56.0000002 magnetization      -0.1972426
 augmentation part       17.5353424 magnetization      -0.0629670

 Broyden mixing:
  rms(total) = 0.30714E+00    rms(broyden)= 0.30712E+00
  rms(prec ) = 0.42744E+00
  weight for this iteration     100.00

 eigenvalues of (default mixing * dielectric matrix)
  average eigenvalue GAMMA=   1.0497
  0.5650  0.8862  1.6978

 Free energy of the ion-electron system (eV)
  ---------------------------------------------------
  alpha Z        PSCENC =       302.45619847
  Ewald energy   TEWEN  =     -5214.09126118
[...]
      2     -46.5089      1.00000
      3     -46.3357      1.00000
      4     -46.3357      1.00000
      5     -46.1944      1.00000
      6     -46.1944      1.00000
      7     -12.7051      1.00000
      8     -12.7051      1.00000
      9     -12.5021      1.00000
     10     -12.5021      1.00000
     11      -1.3966      1.00000
     12      -1.3966      1.00000
     13      -1.1708      1.00000
     14      -1.1708      1.00000
     15      -0.1003      1.00000
     16      -0.1003      1.00000
     17       0.7261      1.00000
     18       0.7261      1.00000
     19       1.6506      1.00000
     20       1.6506      1.00000
     21       2.6195      1.00000
     22       2.6195      1.00000
     23       3.0196      1.00000
     24       3.0196      1.00000
     25       4.0970      1.00000
     26       4.0970      1.00000
     27       5.2512      1.00000
     28       5.2512      1.00000
     29       5.7354      0.00000
     30       5.7354      0.00000
     31       7.9776      0.00000
     32       7.9776      0.00000
     33      16.5833      0.00000
     34      16.5833      0.00000
     35      17.4634      0.00000
     36      17.4634      0.00000

 k-point   145 :       0.4000    0.4000    0.5000
  band No.  band energies     occupation 
      1     -46.5089      1.00000
      2     -46.5088      1.00000
      3     -46.3358      1.00000
      4     -46.3357      1.00000
      5     -46.1944      1.00000
      6     -46.1944      1.00000
      7     -12.6988      1.00000
      8     -12.6785      1.00000
      9     -12.5256      1.00000
     10     -12.5064      1.00000
     11      -1.3884      1.00000
     12      -1.2180      1.00000
     13      -1.1915      1.00000
     14      -1.0375      1.00000
     15      -0.6151      1.00000
     16      -0.0634      1.00000
     17       0.5721      1.00000
     18       0.7207      1.00000
     19       1.5946      1.00000
     20       1.7084      1.00000
     21       2.6228      1.00000
     22       2.6231      1.00000
     23       3.0155      1.00000
     24       3.2650      1.00000
     25       4.0783      1.00000
     26       4.6253      1.00000
     27       4.7993      1.00000
     28       5.2381      1.00000
     29       5.7303      0.00000
     30       6.4805      0.00000
     31       7.3208      0.00000
     32       7.9685      0.00000
     33      16.3858      0.00000
     34      16.7034      0.00000
     35      17.1816      0.00000
     36      17.7260      0.00000

 k-point   146 :       0.5000    0.4000    0.5000
  band No.  band energies     occupation 
      1     -46.5088      1.00000
      2     -46.5088      1.00000
      3     -46.3358      1.00000
      4     -46.3358      1.00000
      5     -46.1944      1.00000
      6     -46.1944      1.00000
      7     -12.6790      1.00000
      8     -12.6790      1.00000
      9     -12.5244      1.00000
     10     -12.5244      1.00000
     11      -1.2379      1.00000
     12      -1.2379      1.00000
     13      -1.1580      1.00000
     14      -1.1580      1.00000
     15      -0.4182      1.00000
     16      -0.4182      1.00000
     17       0.6145      1.00000
     18       0.6145      1.00000
     19       1.6562      1.00000
     20       1.6562      1.00000
     21       2.6249      1.00000
     22       2.6249      1.00000
     23       3.2066      1.00000
     24       3.2066      1.00000
     25       4.3801      1.00000
     26       4.3801      1.00000
     27       4.9932      1.00000
     28       4.9932      1.00000
     29       6.2018      0.00000
     30       6.2018      0.00000
     31       7.5742      0.00000
     32       7.5742      0.00000
     33      16.4738      0.00000
     34      16.4738      0.00000
     35      17.4506      0.00000
     36      17.4506      0.00000

 k-point   147 :       0.5000    0.5000    0.5000
  band No.  band energies     occupation 
      1     -46.5088      1.00000
      2     -46.5088      1.00000
      3     -46.3359      1.00000
      4     -46.3359      1.00000
      5     -46.1945      1.00000
      6     -46.1945      1.00000
      7     -12.6668      1.00000
      8     -12.6668      1.00000
      9     -12.5352      1.00000
     10     -12.5352      1.00000
     11      -1.2150      1.00000
     12      -1.2150      1.00000
     13      -1.0650      1.00000
     14      -1.0650      1.00000
     15      -0.5859      1.00000
     16      -0.5859      1.00000
     17       0.5751      1.00000
     18       0.5751      1.00000
     19       1.6582      1.00000
     20       1.6582      1.00000
     21       2.6268      1.00000
     22       2.6268      1.00000
     23       3.2707      1.00000
     24       3.2707      1.00000
     25       4.6427      1.00000
     26       4.6427      1.00000
     27       4.7420      1.00000
     28       4.7420      1.00000
     29       6.4786      0.00000
     30       6.4786      0.00000
     31       7.3200      0.00000
     32       7.3200      0.00000
     33      16.4182      0.00000
     34      16.4182      0.00000
     35      17.4698      0.00000
     36      17.4698      0.00000


--------------------------------------------------------------------------------------------------------


 soft charge-density along one line, spin component            1
         0         1         2         3         4         5         6         7         8         9
 total charge-density along one line
 
 soft charge-density along one line, spin component            2
         0         1         2         3         4         5         6         7         8         9
 total charge-density along one line
 
 pseudopotential strength for first ion, spin component:            1
-40.518  -0.000   0.033  10.132   0.000  -0.019   0.000   0.000
 -0.000 -40.622  -0.000   0.000  10.189   0.000   0.000   0.000
  0.033  -0.000 -40.518  -0.019   0.000  10.132   0.000   0.000
 10.132   0.000  -0.019   7.359  -0.000   0.004  -0.000  -0.000
  0.000  10.189   0.000  -0.000   7.347  -0.000  -0.000  -0.000
 -0.019   0.000  10.132   0.004  -0.000   7.359  -0.000  -0.000
  0.000   0.000   0.000  -0.000  -0.000  -0.000  -5.092  -0.000
  0.000   0.000   0.000  -0.000  -0.000  -0.000  -0.000  -5.117
 -0.000   0.000  -0.000   0.000  -0.000   0.000  -0.081   0.000
  0.000   0.000   0.000  -0.000  -0.000  -0.000  -0.000  -0.046
 -0.000  -0.000   0.000   0.000   0.000  -0.000  -0.000   0.000
  0.000   0.000   0.000  -0.000  -0.000  -0.000  -5.057  -0.000
  0.000   0.000   0.000  -0.000  -0.000  -0.000  -0.000  -5.085
 -0.000   0.000  -0.000   0.000  -0.000   0.000  -0.090   0.000
  0.000   0.000   0.000  -0.000  -0.000  -0.000  -0.000  -0.052
 -0.000  -0.000   0.000   0.000   0.000  -0.000  -0.000   0.000
 -0.000  -0.000  -0.000  -0.000  -0.000  -0.000  -0.013   0.000
 -0.000  -0.000  -0.000  -0.000  -0.000  -0.000  -0.026   0.000
 pseudopotential strength for first ion, spin component:            2
-40.518  -0.000   0.033  10.132   0.000  -0.019   0.000   0.000
 -0.000 -40.621  -0.000   0.000  10.189   0.000   0.000   0.000
  0.033  -0.000 -40.518  -0.019   0.000  10.132   0.000   0.000
 10.132   0.000  -0.019   7.359  -0.000   0.004  -0.000  -0.000
  0.000  10.189   0.000  -0.000   7.347  -0.000  -0.000  -0.000
 -0.019   0.000  10.132   0.004  -0.000   7.359  -0.000  -0.000
  0.000   0.000   0.000  -0.000  -0.000  -0.000  -5.092  -0.000
  0.000   0.000   0.000  -0.000  -0.000  -0.000  -0.000  -5.117
 -0.000   0.000  -0.000   0.000  -0.000   0.000  -0.081   0.000
  0.000   0.000   0.000  -0.000  -0.000  -0.000  -0.000  -0.046
 -0.000  -0.000   0.000   0.000   0.000  -0.000  -0.000   0.000
  0.000   0.000   0.000  -0.000  -0.000  -0.000  -5.057  -0.000
  0.000   0.000   0.000  -0.000  -0.000  -0.000  -0.000  -5.085
 -0.000   0.000  -0.000   0.000  -0.000   0.000  -0.090   0.000
  0.000   0.000   0.000  -0.000  -0.000  -0.000  -0.000  -0.052
 -0.000  -0.000   0.000   0.000   0.000  -0.000  -0.000   0.000
 -0.000  -0.000  -0.000  -0.000  -0.000  -0.000  -0.013   0.000
 -0.000  -0.000  -0.000  -0.000  -0.000  -0.000  -0.025   0.000
 total augmentation occupancy for first ion, spin component:            1
  1.995   0.000   0.000  -0.035  -0.000   0.001   0.000   0.000   0.000   0.000   0.000   0.000   0.000   0.000   0.000   0.000
  0.000   1.995   0.000  -0.000  -0.036  -0.000   0.000   0.000   0.000   0.000   0.000   0.000   0.000   0.000   0.000   0.000
  0.000   0.000   1.995   0.001  -0.000  -0.035   0.000   0.000   0.000   0.000   0.000   0.000   0.000   0.000   0.000   0.000
 -0.035  -0.000   0.001   0.173   0.000  -0.019   0.000   0.000   0.000   0.000   0.000   0.000   0.000   0.000   0.000   0.000
 -0.000  -0.036  -0.000   0.000   0.203   0.000   0.000   0.000   0.000   0.000   0.000   0.000   0.000   0.000   0.000   0.000
  0.001  -0.000  -0.035  -0.019   0.000   0.173   0.000   0.000   0.000   0.000   0.000   0.000   0.000   0.000   0.000   0.000
  0.000   0.000   0.000   0.000   0.000   0.000   3.968   0.000   1.495   0.000   0.000  -1.952  -0.000  -1.206  -0.000  -0.000
  0.000   0.000   0.000   0.000   0.000   0.000   0.000   3.503   0.000   1.265  -0.000  -0.000  -1.646  -0.000  -0.989   0.000
  0.000   0.000   0.000   0.000   0.000   0.000   1.495   0.000   3.286   0.000   0.000  -1.177  -0.000  -1.441  -0.000  -0.000
  0.000   0.000   0.000   0.000   0.000   0.000   0.000   1.265   0.000   3.503   0.000  -0.000  -0.989  -0.000  -1.646  -0.000
  0.000   0.000   0.000   0.000   0.000   0.000   0.000  -0.000   0.000   0.000   2.106  -0.000   0.000  -0.000  -0.000  -0.598
  0.000   0.000   0.000   0.000   0.000   0.000  -1.952  -0.000  -1.177  -0.000  -0.000   1.466   0.000   0.588   0.000   0.000
  0.000   0.000   0.000   0.000   0.000   0.000  -0.000  -1.646  -0.000  -0.989   0.000   0.000   1.418   0.000   0.410  -0.000
  0.000   0.000   0.000   0.000   0.000   0.000  -1.206  -0.000  -1.441  -0.000  -0.000   0.588   0.000   1.357   0.000   0.000
  0.000   0.000   0.000   0.000   0.000   0.000  -0.000  -0.989  -0.000  -1.646  -0.000   0.000   0.410   0.000   1.418   0.000
  0.000   0.000   0.000   0.000   0.000   0.000  -0.000   0.000  -0.000  -0.000  -0.598   0.000  -0.000   0.000   0.000   1.053
  0.000   0.000   0.000   0.000   0.000   0.000  -0.210  -0.000   0.214  -0.000  -0.000   0.260   0.000  -0.298   0.000   0.000
  0.000   0.000   0.000   0.000   0.000   0.000   0.023   0.000  -0.011   0.000   0.000  -0.034  -0.000   0.037  -0.000  -0.000
 total augmentation occupancy for first ion, spin component:            2
 -0.000  -0.000  -0.000  -0.000  -0.000  -0.000   0.000   0.000   0.000   0.000   0.000   0.000   0.000   0.000   0.000   0.000
 -0.000  -0.000  -0.000  -0.000  -0.000  -0.000   0.000   0.000   0.000   0.000   0.000   0.000   0.000   0.000   0.000   0.000
 -0.000  -0.000  -0.000  -0.000  -0.000  -0.000   0.000   0.000   0.000   0.000   0.000   0.000   0.000   0.000   0.000   0.000
 -0.000  -0.000  -0.000   0.000   0.000  -0.000   0.000   0.000   0.000   0.000   0.000   0.000   0.000   0.000   0.000   0.000
 -0.000  -0.000  -0.000   0.000  -0.000   0.000   0.000   0.000   0.000   0.000   0.000   0.000   0.000   0.000   0.000   0.000
 -0.000  -0.000  -0.000  -0.000   0.000   0.000   0.000   0.000   0.000   0.000   0.000   0.000   0.000   0.000   0.000   0.000
  0.000   0.000   0.000   0.000   0.000   0.000  -0.000  -0.000   0.000  -0.000  -0.000   0.000   0.000  -0.000   0.000  -0.000
  0.000   0.000   0.000   0.000   0.000   0.000  -0.000   0.000   0.000  -0.000  -0.000   0.000   0.000  -0.000  -0.000  -0.000
  0.000   0.000   0.000   0.000   0.000   0.000   0.000   0.000   0.000   0.000   0.000  -0.000  -0.000  -0.000  -0.000  -0.000
  0.000   0.000   0.000   0.000   0.000   0.000  -0.000  -0.000   0.000   0.000   0.000   0.000  -0.000  -0.000   0.000   0.000
  0.000   0.000   0.000   0.000   0.000   0.000  -0.000  -0.000   0.000   0.000   0.000  -0.000  -0.000  -0.000   0.000   0.000
  0.000   0.000   0.000   0.000   0.000   0.000   0.000   0.000  -0.000   0.000  -0.000  -0.000  -0.000  -0.000  -0.000   0.000
  0.000   0.000   0.000   0.000   0.000   0.000   0.000   0.000  -0.000  -0.000  -0.000  -0.000  -0.000  -0.000   0.000   0.000
  0.000   0.000   0.000   0.000   0.000   0.000  -0.000  -0.000  -0.000  -0.000  -0.000  -0.000  -0.000   0.000  -0.000   0.000
  0.000   0.000   0.000   0.000   0.000   0.000   0.000  -0.000  -0.000   0.000   0.000  -0.000   0.000  -0.000  -0.000  -0.000
  0.000   0.000   0.000   0.000   0.000   0.000  -0.000  -0.000  -0.000   0.000   0.000   0.000   0.000   0.000  -0.000  -0.000
  0.000   0.000   0.000   0.000   0.000   0.000  -0.000  -0.000  -0.000  -0.000  -0.000   0.000   0.000   0.000   0.000   0.000
  0.000   0.000   0.000   0.000   0.000   0.000   0.000   0.000   0.000   0.000   0.000  -0.000  -0.000  -0.000  -0.000  -0.000


------------------------ aborting loop because EDIFF is reached ----------------------------------------





 total charge

# of ion       s       p       d       tot
------------------------------------------
    1        0.334   6.323   7.656  14.313
    2        0.334   6.323   7.656  14.313
    3        1.574   3.375   0.000   4.949
    4        1.574   3.375   0.000   4.949
    5        1.574   3.375   0.000   4.949
    6        1.574   3.375   0.000   4.949
--------------------------------------------------
tot          6.964  26.146  15.311  48.422



 magnetization (x)

# of ion       s       p       d       tot
------------------------------------------
    1       -0.000  -0.000   0.000   0.000
    2       -0.000  -0.000   0.000   0.000
    3        0.000   0.000   0.000   0.000
    4        0.000   0.000   0.000   0.000
    5        0.000   0.000   0.000   0.000
    6        0.000   0.000   0.000   0.000
--------------------------------------------------
tot          0.000   0.001   0.001   0.002
 
    CHARGE:  cpu time      0.8251: real time      0.8251
    FORLOC:  cpu time      0.0018: real time      0.0018
    FORNL :  cpu time      1.2841: real time      1.2841
    FORCOR:  cpu time      0.6264: real time      0.6264
    FORHAR:  cpu time      0.0057: real time      0.0057
    MIXING:  cpu time      0.0019: real time      0.0019
    OFIELD:  cpu time      0.0000: real time      0.0000

 ---------------------------------------------------------------------------------------------

         DFTD3 V3.0 Rev 1        
 DF pbe       
 parameters
 k1-k3        =   16.0000    1.3333   -4.0000
 Edisp (eV)   -1.41402

 E6    (eV) :    -0.8848
 E8    (eV) :    -0.5293
 % E8        : 37.43
    FORVDW:  cpu time      0.0117: real time      0.0118

 VOLUME and BASIS-vectors are now :
 -----------------------------------------------------------------------------
  energy-cutoff  :      520.00
  volume of cell :       64.34
      direct lattice vectors                 reciprocal lattice vectors
     4.522230460  0.000000000  0.000000000     0.221129818 -0.000000000  0.000000000
     0.000000000  4.522230460  0.000000000     0.000000000  0.221129818  0.000000000
     0.000000000  0.000000000  3.146273630    -0.000000000 -0.000000000  0.317836310

  length of vectors
     4.522230460  4.522230460  3.146273630     0.221129818  0.221129818  0.317836310


 FORCES acting on ions
    electron-ion (+dipol)            ewald-force                    non-local-force                 convergence-correction
 -----------------------------------------------------------------------------------------------
   0.208E-11 0.724E-11 0.680E-11   0.284E-13 0.000E+00 0.158E-13   0.258E-25 0.000E+00 0.000E+00   0.580E-13 -.333E-13 -.784E-14
   0.492E-15 0.399E-14 -.128E-11   0.284E-13 0.114E-12 -.100E-13   0.564E-25 0.000E+00 0.000E+00   -.177E-13 0.216E-13 0.124E-13
   0.374E+02 -.374E+02 0.585E-11   -.386E+02 0.386E+02 0.163E-13   0.121E+01 -.121E+01 -.208E-16   -.180E-04 0.180E-04 0.657E-13
   -.374E+02 0.374E+02 0.650E-12   0.386E+02 -.386E+02 -.574E-14   -.121E+01 0.121E+01 0.208E-16   0.180E-04 -.180E-04 -.693E-13
   0.374E+02 0.374E+02 -.108E-07   -.386E+02 -.386E+02 0.191E-12   0.121E+01 0.121E+01 0.180E-15   -.180E-04 -.180E-04 -.105E-12
   -.374E+02 -.374E+02 0.108E-07   0.386E+02 0.386E+02 -.209E-12   -.121E+01 -.121E+01 -.180E-15   0.180E-04 0.180E-04 0.105E-12
 -----------------------------------------------------------------------------------------------
   -.580E-12 0.108E-10 0.218E-11   -.711E-14 0.355E-13 -.172E-14   0.222E-15 0.000E+00 0.000E+00   0.332E-13 -.215E-13 0.773E-15
 
 
 POSITION                                       TOTAL-FORCE (eV/Angst)
 -----------------------------------------------------------------------------------
      2.26112      2.26112      1.57314        -0.000000      0.000000      0.000000
      0.00000      0.00000      0.00000         0.000000      0.000000      0.000000
      3.65465      0.86758      1.57314        -0.037400      0.037400      0.000000
      0.86758      3.65465      1.57314         0.037400     -0.037400     -0.000000
      1.39353      1.39353      0.00000        -0.037400     -0.037400     -0.000000
      3.12870      3.12870      0.00000         0.037400      0.037400      0.000000
 -----------------------------------------------------------------------------------
    total drift:                               -0.000000      0.000000      0.000000


--------------------------------------------------------------------------------------------------------



  FREE ENERGIE OF THE ION-ELECTRON SYSTEM (eV)
  ---------------------------------------------------
  free  energy   TOTEN  =       -33.52615910 eV

  energy  without entropy=      -33.51874883  energy(sigma->0) =      -33.52245396
 


--------------------------------------------------------------------------------------------------------


    POTLOK:  cpu time      0.6276: real time      0.6276


--------------------------------------------------------------------------------------------------------


     LOOP+:  cpu time    278.2040: real time    278.7660
    4ORBIT:  cpu time      0.0000: real time      0.0000



 total charge

# of ion       s       p       d       tot
------------------------------------------
    1        0.334   6.323   7.656  14.313
    2        0.334   6.323   7.656  14.313
    3        1.574   3.375   0.000   4.949
    4        1.574   3.375   0.000   4.949
    5        1.574   3.375   0.000   4.949
    6        1.574   3.375   0.000   4.949
--------------------------------------------------
tot          6.964  26.146  15.311  48.422



 magnetization (x)

# of ion       s       p       d       tot
------------------------------------------
    1       -0.000  -0.000   0.000   0.000
    2       -0.000  -0.000   0.000   0.000
    3        0.000   0.000   0.000   0.000
    4        0.000   0.000   0.000   0.000
    5        0.000   0.000   0.000   0.000
    6        0.000   0.000   0.000   0.000
--------------------------------------------------
tot          0.000   0.001   0.001   0.002
 

 total amount of memory used by VASP MPI-rank0   198985. kBytes
=======================================================================

   base      :      30000. kBytes
   nonl-proj :      74510. kBytes
   fftplans  :       9397. kBytes
   grid      :       7672. kBytes
   one-center:        186. kBytes
   wavefun   :      77220. kBytes
 
  
  
 General timing and accounting informations for this job:
 ========================================================
  
                  Total CPU time used (sec):      281.538
                            User time (sec):      271.927
                          System time (sec):        9.611
                         Elapsed time (sec):      284.506
  
                   Maximum memory used (kb):      483916.
                   Average memory used (kb):          N/A
  
                          Minor page faults:      1115846
                          Major page faults:           11
                 Voluntary context switches:          257
