       N       E                     dE             d eps       ncg     rms          rms(c)
DAV:   1     0.576206949142E+03    0.57621E+03   -0.33648E+04  7480   0.167E+03
DAV:   2    -0.870023649243E+01   -0.58491E+03   -0.56354E+03  8312   0.481E+02
DAV:   3    -0.405876131323E+02   -0.31887E+02   -0.31565E+02  7876   0.118E+02
DAV:   4    -0.409876560747E+02   -0.40004E+00   -0.39943E+00  7948   0.142E+01
DAV:   5    -0.409922504887E+02   -0.45944E-02   -0.45941E-02  7712   0.153E+00    0.281E+01
DAV:   6    -0.356328368470E+02    0.53594E+01   -0.51555E+01  7708   0.654E+01    0.156E+01
DAV:   7    -0.321926613804E+02    0.34402E+01   -0.15730E+01  7548   0.359E+01    0.539E+00
DAV:   8    -0.321403091923E+02    0.52352E-01   -0.12717E+00  7644   0.661E+00    0.301E+00
DAV:   9    -0.321138130768E+02    0.26496E-01   -0.13042E-01  7824   0.325E+00    0.848E-01
DAV:  10    -0.321106604260E+02    0.31527E-02   -0.17806E-02  7672   0.127E+00    0.275E-01
DAV:  11    -0.321106698807E+02   -0.94547E-05   -0.20310E-03  7628   0.365E-01    0.118E-01
DAV:  12    -0.321106288302E+02    0.41050E-04   -0.21644E-04  7788   0.960E-02    0.525E-02
DAV:  13    -0.321106443107E+02   -0.15481E-04   -0.80263E-05  7652   0.530E-02    0.124E-02
DAV:  14    -0.321106458183E+02   -0.15076E-05   -0.27496E-06  6076   0.124E-02    0.486E-03
DAV:  15    -0.321106454679E+02    0.35041E-06   -0.75916E-07  4520   0.719E-03
   1 F= -.33524665E+02 E0= -.33522152E+02  d E =-.502659E-02  mag=    -0.3279
