 vasp.6.4.3 19Mar24 (build Nov 27 2025 15:18:09) complex                         
 executed on              LinuxNV date 2026.06.04  16:44:12
 running    4 mpi-ranks, with    1 threads/rank, on    1 nodes
 distrk:  each k-point on    4 cores,    1 groups
 distr:  one band on NCORE=   1 cores,    4 groups
 OpenACC runtime initialized ...    0 GPUs detected


--------------------------------------------------------------------------------------------------------


 INCAR:
   SYSTEM = pddmc
   ENCUT = 500
   PREC = Accurate
   LASPH = .TRUE.
   ADDGRID = .TRUE.
   ISPIN = 2
   IVDW = 12
   EDIFF = 1e-06
   NELM = 200
   NELMIN = 5
   ALGO = Normal
   NCORE = 1
   LREAL = .FALSE.
   LWAVE = .FALSE.
   LCHARG = .FALSE.
   LORBIT = 11
   ISYM = 2
   IBRION = -1
   NSW = 0
   ISIF = 0
   ISMEAR = 0
   SIGMA = 0.05
   EDIFFG = -0.01

 POTCAR:    PAW_PBE Pd_pv 28Jan2005               
 POTCAR:    PAW_PBE O 08Apr2002                   
 -----------------------------------------------------------------------------
|                                                                             |
|           W    W    AA    RRRRR   N    N  II  N    N   GGGG   !!!           |
|           W    W   A  A   R    R  NN   N  II  NN   N  G    G  !!!           |
|           W    W  A    A  R    R  N N  N  II  N N  N  G       !!!           |
|           W WW W  AAAAAA  RRRRR   N  N N  II  N  N N  G  GGG   !            |
|           WW  WW  A    A  R   R   N   NN  II  N   NN  G    G                |
|           W    W  A    A  R    R  N    N  II  N    N   GGGG   !!!           |
|                                                                             |
|     You use a magnetic or noncollinear calculation, but did not specify     |
|     the initial magnetic moment with the MAGMOM tag. Note that a            |
|     default of 1 will be used for all atoms. This ferromagnetic setup       |
|     may break the symmetry of the crystal, in particular it may rule        |
|     out finding an antiferromagnetic solution. Thence, we recommend         |
|     setting the initial magnetic moment manually or verifying carefully     |
|     that this magnetic setup is desired.                                    |
|                                                                             |
 -----------------------------------------------------------------------------

 POTCAR:    PAW_PBE Pd_pv 28Jan2005               
   SHA256 =  3ce661545bbde58da9a95410dea32907db2844916708bcd35bbe03ee66324d7f Pd_pv/POTCAR          
   COPYR  = (c) Copyright 28Jan2005 Georg Kresse                                                    
   COPYR  = This file is part of the software VASP. Any use, copying, and all other rights are regul
   COPYR  = If you do not have a valid VASP license, you may not use, copy or distribute this file. 
   VRHFIN =Pd: 4p5s4d                                                                               
   LEXCH  = PE                                                                                      
   EATOM  =  2621.5550 eV,  192.6789 Ry                                                             
                                                                                                    
   TITEL  = PAW_PBE Pd_pv 28Jan2005                                                                 
   LULTRA =        F    use ultrasoft PP ?                                                          
   IUNSCR =        1    unscreen: 0-lin 1-nonlin 2-no                                               
   RPACOR =    2.250    partial core radius                                                         
   POMASS =  106.420; ZVAL   =   16.000    mass and valenz                                          
   RCORE  =    2.400    outmost cutoff radius                                                       
   RWIGS  =    2.300; RWIGS  =    1.217    wigner-seitz radius (au A)                               
   ENMAX  =  250.925; ENMIN  =  188.194 eV                                                          
   ICORE  =        3    local potential                                                             
   LCOR   =        T    correct aug charges                                                         
   LPAW   =        T    paw PP                                                                      
   EAUG   =  473.067                                                                                
   DEXC   =    0.000                                                                                
   RMAX   =    2.449    core radius for proj-oper                                                   
   RAUG   =    1.300    factor for augmentation sphere                                              
   RDEP   =    2.405    radius for radial grids                                                     
   RDEPT  =    1.966    core radius for aug-charge                                                  
                                                                                                    
   Atomic configuration                                                                             
   11 entries                                                                                       
     n  l   j            E        occ.                                                              
     1  0  0.50    -24164.6632   2.0000                                                             
     2  0  0.50     -3530.9218   2.0000                                                             
     2  1  1.50     -3165.6822   6.0000                                                             
     3  0  0.50      -639.4578   2.0000                                                             
     3  1  1.50      -519.4532   6.0000                                                             
     3  2  2.50      -328.9758  10.0000                                                             
     4  0  0.50       -88.7014   2.0000                                                             
     4  1  1.50       -54.4541   6.0000                                                             
     4  2  2.50        -6.6878   9.0000                                                             
     5  0  0.50        -4.3543   1.0000                                                             
     4  3  2.50        -1.3606   0.0000                                                             
   Description                                                                                      
     l       E           TYP  RCUT    TYP  RCUT                                                     
     1    -54.4540524     23  2.100                                                                 
     1      4.0817478     23  2.100                                                                 
     2     -6.6878326     23  2.400                                                                 
     2     -4.0817478     23  2.400                                                                 
     0     -4.3542962     23  2.400                                                                 
     0     13.6058260     23  2.400                                                                 
     3     -5.4423304     23  2.400                                                                 
  local pseudopotential read in
  partial core-charges read in
  partial kinetic energy density read in
  atomic valenz-charges read in
  non local Contribution for L=            1  read in
    real space projection operators read in
  non local Contribution for L=            1  read in
    real space projection operators read in
  non local Contribution for L=            2  read in
    real space projection operators read in
  non local Contribution for L=            2  read in
    real space projection operators read in
  non local Contribution for L=            0  read in
    real space projection operators read in
  non local Contribution for L=            0  read in
    real space projection operators read in
    PAW grid and wavefunctions read in
 
   number of l-projection  operators is LMAX  =            6
   number of lm-projection operators is LMMAX =           18
 
 POTCAR:    PAW_PBE O 08Apr2002                   
   SHA256 =  818f92134a0a090dccd8ba1447fa70422a3b330e708bb4f08108d8ae51209ddf O/POTCAR              
   COPYR  = (c) Copyright 08Apr2002 Georg Kresse                                                    
   COPYR  = This file is part of the software VASP. Any use, copying, and all other rights are regul
   COPYR  = If you do not have a valid VASP license, you may not use, copy or distribute this file. 
   VRHFIN =O: s2p4                                                                                  
   LEXCH  = PE                                                                                      
   EATOM  =   432.3788 eV,   31.7789 Ry                                                             
                                                                                                    
   TITEL  = PAW_PBE O 08Apr2002                                                                     
   LULTRA =        F    use ultrasoft PP ?                                                          
   IUNSCR =        1    unscreen: 0-lin 1-nonlin 2-no                                               
   RPACOR =    1.200    partial core radius                                                         
   POMASS =   16.000; ZVAL   =    6.000    mass and valenz                                          
   RCORE  =    1.520    outmost cutoff radius                                                       
   RWIGS  =    1.550; RWIGS  =    0.820    wigner-seitz radius (au A)                               
   ENMAX  =  400.000; ENMIN  =  300.000 eV                                                          
   ICORE  =        2    local potential                                                             
   LCOR   =        T    correct aug charges                                                         
   LPAW   =        T    paw PP                                                                      
   EAUG   =  605.392                                                                                
   DEXC   =    0.000                                                                                
   RMAX   =    1.553    core radius for proj-oper                                                   
   RAUG   =    1.300    factor for augmentation sphere                                              
   RDEP   =    1.550    radius for radial grids                                                     
   RDEPT  =    1.329    core radius for aug-charge                                                  
                                                                                                    
   Atomic configuration                                                                             
    4 entries                                                                                       
     n  l   j            E        occ.                                                              
     1  0  0.50      -514.6923   2.0000                                                             
     2  0  0.50       -23.9615   2.0000                                                             
     2  1  0.50        -9.0305   4.0000                                                             
     3  2  1.50        -9.5241   0.0000                                                             
   Description                                                                                      
     l       E           TYP  RCUT    TYP  RCUT                                                     
     0    -23.9615318     23  1.200                                                                 
     0     -9.5240782     23  1.200                                                                 
     1     -9.0304911     23  1.520                                                                 
     1      8.1634956     23  1.520                                                                 
     2     -9.5240782      7  1.500                                                                 
  local pseudopotential read in
  partial core-charges read in
  partial kinetic energy density read in
  kinetic energy density of atom read in
  atomic valenz-charges read in
  non local Contribution for L=            0  read in
    real space projection operators read in
  non local Contribution for L=            0  read in
    real space projection operators read in
  non local Contribution for L=            1  read in
    real space projection operators read in
  non local Contribution for L=            1  read in
    real space projection operators read in
    PAW grid and wavefunctions read in
 
   number of l-projection  operators is LMAX  =            4
   number of lm-projection operators is LMMAX =            8
 
  PAW_PBE Pd_pv 28Jan2005               :
 energy of atom  1       EATOM=-2621.5550
 kinetic energy error for atom=    0.0092 (will be added to EATOM!!)
  PAW_PBE O 08Apr2002                   :
 energy of atom  2       EATOM= -432.3788
 kinetic energy error for atom=    0.0224 (will be added to EATOM!!)
 
 
 POSCAR: Pd O
  positions in cartesian coordinates
  No initial velocities read in
 IVDW         = 12
 VDW_S6       =    1.0000
 VDW_S8       =    0.7875
 VDW_A1       =    0.4289
 VDW_A2       =    4.4407
 VDW_RADIUS   =   50.2022 A
 VDW_CNRADIUS =   21.1671 A


 exchange-correlation table for PE
   RHO(1)=    0.500       N(1)  =     2000
   RHO(2)=  100.500       N(2)  =     4000
 


--------------------------------------------------------------------------------------------------------


 ion  position               nearest neighbor table
   1  0.500  0.500  0.500-   3 1.97   4 1.97   5 2.00   6 2.00   5 2.00   6 2.00
   2  0.000  0.000  0.000-   5 1.97   6 1.97   3 2.00   4 2.00   3 2.00   4 2.00
   3  0.808  0.192  0.500-   1 1.97   2 2.00   2 2.00
   4  0.192  0.808  0.500-   1 1.97   2 2.00   2 2.00
   5  0.308  0.308  0.000-   2 1.97   1 2.00   1 2.00
   6  0.692  0.692  0.000-   2 1.97   1 2.00   1 2.00
 
  LATTYP: Found a simple tetragonal cell.
 ALAT       =     4.5222304600
 C/A-ratio  =     0.6957349162
  
  Lattice vectors:
  
 A1 = (   4.5222304600,   0.0000000000,   0.0000000000)
 A2 = (   0.0000000000,   4.5222304600,   0.0000000000)
 A3 = (   0.0000000000,   0.0000000000,   3.1462736300)


Analysis of symmetry for initial positions (statically):
=====================================================================
 Subroutine PRICEL returns:
 Original cell was already a primitive cell.
 

 Routine SETGRP: Setting up the symmetry group for a 
 simple tetragonal supercell.


 Subroutine GETGRP returns: Found 16 space group operations
 (whereof  8 operations were pure point group operations)
 out of a pool of 16 trial point group operations.


The static configuration has the point symmetry D_2h.
 The point group associated with its full space group is D_4h.


Analysis of symmetry for dynamics (positions and initial velocities):
=====================================================================
 Subroutine PRICEL returns:
 Original cell was already a primitive cell.
 

 Routine SETGRP: Setting up the symmetry group for a 
 simple tetragonal supercell.


 Subroutine GETGRP returns: Found 16 space group operations
 (whereof  8 operations were pure point group operations)
 out of a pool of 16 trial point group operations.


The dynamic configuration has the point symmetry D_2h.
 The point group associated with its full space group is D_4h.


Analysis of structural, dynamic, and magnetic symmetry:
=====================================================================
 Subroutine PRICEL returns:
 Original cell was already a primitive cell.
 

 Routine SETGRP: Setting up the symmetry group for a 
 simple tetragonal supercell.


 Subroutine GETGRP returns: Found 16 space group operations
 (whereof  8 operations were pure point group operations)
 out of a pool of 16 trial point group operations.


The overall configuration has the point symmetry D_2h.
 The point group associated with its full space group is D_4h.


 Subroutine INISYM returns: Found 16 space group operations
 (whereof  8 operations are pure point group operations),
 and found     1 'primitive' translations


----------------------------------------------------------------------------------------

                                     Primitive cell                                     

  volume of cell :      64.3431

  direct lattice vectors                    reciprocal lattice vectors
     4.522230460  0.000000000  0.000000000     0.221129818 -0.000000000  0.000000000
     0.000000000  4.522230460  0.000000000     0.000000000  0.221129818  0.000000000
     0.000000000  0.000000000  3.146273630    -0.000000000 -0.000000000  0.317836310

  length of vectors
     4.522230460  4.522230460  3.146273630     0.221129818  0.221129818  0.317836310

  position of ions in fractional coordinates (direct lattice)
     0.500000000  0.500000000  0.500000000
     0.000000000  0.000000000  0.000000000
     0.808151920  0.191848080  0.500000000
     0.191848080  0.808151920  0.500000000
     0.308151920  0.308151920  1.000000000
     0.691848080  0.691848080  1.000000000

  ion indices of the primitive-cell ions
   primitive index   ion index
                 1           1
                 2           2
                 3           3
                 4           4
                 5           5
                 6           6

----------------------------------------------------------------------------------------

 
 
 KPOINTS: Automatic mesh                          

Automatic generation of k-mesh.
 Grid dimensions read from file:
 generate k-points for:    6    6    8

 Generating k-lattice:

  Cartesian coordinates                     Fractional coordinates (reciprocal lattice)
     0.036854970 -0.000000000  0.000000000     0.166666667 -0.000000000  0.000000000
     0.000000000  0.036854970  0.000000000     0.000000000  0.166666667  0.000000000
    -0.000000000 -0.000000000  0.039729539     0.000000000 -0.000000000  0.125000000

  Length of vectors
     0.036854970  0.036854970  0.039729539

  Shift w.r.t. Gamma in fractional coordinates (k-lattice)
     0.000000000  0.000000000  0.000000000

 
 Subroutine IBZKPT returns following result:
 ===========================================
 
 Found     50 irreducible k-points:
 
 Following reciprocal coordinates:
            Coordinates               Weight
  0.000000  0.000000  0.000000      1.000000
  0.166667  0.000000  0.000000      4.000000
  0.333333  0.000000  0.000000      4.000000
  0.500000  0.000000  0.000000      2.000000
  0.166667  0.166667  0.000000      4.000000
  0.333333  0.166667  0.000000      8.000000
  0.500000  0.166667  0.000000      4.000000
  0.333333  0.333333  0.000000      4.000000
  0.500000  0.333333  0.000000      4.000000
  0.500000  0.500000  0.000000      1.000000
  0.000000  0.000000  0.125000      2.000000
  0.166667  0.000000  0.125000      8.000000
  0.333333  0.000000  0.125000      8.000000
  0.500000  0.000000  0.125000      4.000000
  0.166667  0.166667  0.125000      8.000000
  0.333333  0.166667  0.125000     16.000000
  0.500000  0.166667  0.125000      8.000000
  0.333333  0.333333  0.125000      8.000000
  0.500000  0.333333  0.125000      8.000000
  0.500000  0.500000  0.125000      2.000000
  0.000000  0.000000  0.250000      2.000000
  0.166667  0.000000  0.250000      8.000000
  0.333333  0.000000  0.250000      8.000000
  0.500000  0.000000  0.250000      4.000000
  0.166667  0.166667  0.250000      8.000000
  0.333333  0.166667  0.250000     16.000000
  0.500000  0.166667  0.250000      8.000000
  0.333333  0.333333  0.250000      8.000000
  0.500000  0.333333  0.250000      8.000000
  0.500000  0.500000  0.250000      2.000000
  0.000000  0.000000  0.375000      2.000000
  0.166667  0.000000  0.375000      8.000000
  0.333333  0.000000  0.375000      8.000000
  0.500000  0.000000  0.375000      4.000000
  0.166667  0.166667  0.375000      8.000000
  0.333333  0.166667  0.375000     16.000000
  0.500000  0.166667  0.375000      8.000000
  0.333333  0.333333  0.375000      8.000000
  0.500000  0.333333  0.375000      8.000000
  0.500000  0.500000  0.375000      2.000000
  0.000000  0.000000  0.500000      1.000000
  0.166667  0.000000  0.500000      4.000000
  0.333333  0.000000  0.500000      4.000000
  0.500000  0.000000  0.500000      2.000000
  0.166667  0.166667  0.500000      4.000000
  0.333333  0.166667  0.500000      8.000000
  0.500000  0.166667  0.500000      4.000000
  0.333333  0.333333  0.500000      4.000000
  0.500000  0.333333  0.500000      4.000000
  0.500000  0.500000  0.500000      1.000000
 
 Following cartesian coordinates:
            Coordinates               Weight
  0.000000  0.000000  0.000000      1.000000
  0.036855  0.000000  0.000000      4.000000
  0.073710  0.000000  0.000000      4.000000
  0.110565  0.000000  0.000000      2.000000
  0.036855  0.036855  0.000000      4.000000
  0.073710  0.036855  0.000000      8.000000
  0.110565  0.036855  0.000000      4.000000
  0.073710  0.073710  0.000000      4.000000
  0.110565  0.073710  0.000000      4.000000
  0.110565  0.110565  0.000000      1.000000
  0.000000  0.000000  0.039730      2.000000
  0.036855  0.000000  0.039730      8.000000
  0.073710  0.000000  0.039730      8.000000
  0.110565  0.000000  0.039730      4.000000
  0.036855  0.036855  0.039730      8.000000
  0.073710  0.036855  0.039730     16.000000
  0.110565  0.036855  0.039730      8.000000
  0.073710  0.073710  0.039730      8.000000
  0.110565  0.073710  0.039730      8.000000
  0.110565  0.110565  0.039730      2.000000
  0.000000  0.000000  0.079459      2.000000
  0.036855  0.000000  0.079459      8.000000
  0.073710  0.000000  0.079459      8.000000
  0.110565  0.000000  0.079459      4.000000
  0.036855  0.036855  0.079459      8.000000
  0.073710  0.036855  0.079459     16.000000
  0.110565  0.036855  0.079459      8.000000
  0.073710  0.073710  0.079459      8.000000
  0.110565  0.073710  0.079459      8.000000
  0.110565  0.110565  0.079459      2.000000
  0.000000  0.000000  0.119189      2.000000
  0.036855  0.000000  0.119189      8.000000
  0.073710  0.000000  0.119189      8.000000
  0.110565  0.000000  0.119189      4.000000
  0.036855  0.036855  0.119189      8.000000
  0.073710  0.036855  0.119189     16.000000
  0.110565  0.036855  0.119189      8.000000
  0.073710  0.073710  0.119189      8.000000
  0.110565  0.073710  0.119189      8.000000
  0.110565  0.110565  0.119189      2.000000
  0.000000  0.000000  0.158918      1.000000
  0.036855  0.000000  0.158918      4.000000
  0.073710  0.000000  0.158918      4.000000
  0.110565  0.000000  0.158918      2.000000
  0.036855  0.036855  0.158918      4.000000
  0.073710  0.036855  0.158918      8.000000
  0.110565  0.036855  0.158918      4.000000
  0.073710  0.073710  0.158918      4.000000
  0.110565  0.073710  0.158918      4.000000
  0.110565  0.110565  0.158918      1.000000
 


--------------------------------------------------------------------------------------------------------




 Dimension of arrays:
   k-points           NKPTS =     50   k-points in BZ     NKDIM =     50   number of bands    NBANDS=     36
   number of dos      NEDOS =    301   number of ions     NIONS =      6
   non local maximal  LDIM  =      6   non local SUM 2l+1 LMDIM =     18
   total plane-waves  NPLWV =  31104
   max r-space proj   IRMAX =      1   max aug-charges    IRDMAX= 155006
   dimension x,y,z NGX =    36 NGY =   36 NGZ =   24
   dimension x,y,z NGXF=    72 NGYF=   72 NGZF=   48
   support grid    NGXF=   144 NGYF=  144 NGZF=   96
   ions per type =               2   4
   NGX,Y,Z   is equivalent  to a cutoff of  13.23, 13.23, 12.68 a.u.
   NGXF,Y,Z  is equivalent  to a cutoff of  26.47, 26.47, 25.36 a.u.

 SYSTEM =  pddmc                                   
 POSCAR =  Pd O                                    

 Startparameter for this run:
   NWRITE =      2    write-flag & timer
   PREC   = accura    normal or accurate (medium, high low for compatibility)
   ISTART =      0    job   : 0-new  1-cont  2-samecut
   ICHARG =      2    charge: 1-file 2-atom 10-const
   ISPIN  =      2    spin polarized calculation?
   LNONCOLLINEAR =      F non collinear calculations
   LSORBIT =      F    spin-orbit coupling
   INIWAV =      1    electr: 0-lowe 1-rand  2-diag
   LASPH  =      T    aspherical Exc in radial PAW
 Electronic Relaxation 1
   ENCUT  =  500.0 eV  36.75 Ry    6.06 a.u.   8.25  8.25  5.74*2*pi/ulx,y,z
   ENINI  =  500.0     initial cutoff
   ENAUG  =  605.4 eV  augmentation charge cutoff
   NELM   =    200;   NELMIN=  5; NELMDL= -5     # of ELM steps 
   EDIFF  = 0.1E-05   stopping-criterion for ELM
   LREAL  =      F    real-space projection
   NLSPLINE    = F    spline interpolate recip. space projectors
   LCOMPAT=      F    compatible to vasp.4.4
   GGA_COMPAT  = T    GGA compatible to vasp.4.4-vasp.4.6
   LMAXPAW     = -100 max onsite density
   LMAXMIX     =    2 max onsite mixed and CHGCAR
   VOSKOWN=      0    Vosko Wilk Nusair interpolation
   ROPT   =    0.00000   0.00000
 Ionic relaxation
   EDIFFG = -.1E-01   stopping-criterion for IOM
   NSW    =      0    number of steps for IOM
   NBLOCK =      1;   KBLOCK =      1    inner block; outer block 
   IBRION =     -1    ionic relax: 0-MD 1-quasi-New 2-CG
   NFREE  =      0    steps in history (QN), initial steepest desc. (CG)
   ISIF   =      0    stress and relaxation
   IWAVPR =     10    prediction:  0-non 1-charg 2-wave 3-comb
   ISYM   =      2    0-nonsym 1-usesym 2-fastsym
   LCORR  =      T    Harris-Foulkes like correction to forces

   POTIM  = 0.5000    time-step for ionic-motion
   TEIN   =    0.0    initial temperature
   TEBEG  =    0.0;   TEEND  =   0.0 temperature during run
   SMASS  =  -3.00    Nose mass-parameter (am)
   estimated Nose-frequenzy (Omega)   =  0.10E-29 period in steps = 0.13E+47 mass=  -0.467E-27a.u.
   SCALEE = 1.0000    scale energy and forces
   NPACO  =    256;   APACO  = 10.0  distance and # of slots for P.C.
   PSTRESS=    0.0 pullay stress

  Mass of Ions in am
   POMASS = 106.42 16.00
  Ionic Valenz
   ZVAL   =  16.00  6.00
  Atomic Wigner-Seitz radii
   RWIGS  =  -1.00 -1.00
  virtual crystal weights 
   VCA    =   1.00  1.00
   NELECT =      56.0000    total number of electrons
   NUPDOWN=      -1.0000    fix difference up-down

 DOS related values:
   EMIN   =  10.00;   EMAX   =-10.00  energy-range for DOS
   EFERMI =   0.00;   METHOD = LEGACY      
   ISMEAR =     0;   SIGMA  =   0.05  broadening in eV -4-tet -1-fermi 0-gaus

 Electronic relaxation 2 (details)
   IALGO  =     38    algorithm
   LDIAG  =      T    sub-space diagonalisation (order eigenvalues)
   LSUBROT=      F    optimize rotation matrix (better conditioning)
   TURBO    =      0    0=normal 1=particle mesh
   IRESTART =      0    0=no restart 2=restart with 2 vectors
   NREBOOT  =      0    no. of reboots
   NMIN     =      0    reboot dimension
   EREF     =   0.00    reference energy to select bands
   IMIX   =      4    mixing-type and parameters
     AMIX     =   0.40;   BMIX     =  1.00
     AMIX_MAG =   1.60;   BMIX_MAG =  1.00
     AMIN     =   0.10
     WC   =   100.;   INIMIX=   1;  MIXPRE=   1;  MAXMIX= -45

 Intra band minimization:
   WEIMIN = 0.0000     energy-eigenvalue tresh-hold
   EBREAK =  0.69E-08  absolut break condition
   DEPER  =   0.30     relativ break condition  

   TIME   =   0.40     timestep for ELM

  volume/ion in A,a.u.               =      10.72        72.37
  Fermi-wavevector in a.u.,A,eV,Ry     =   1.563040  2.953718 33.240331  2.443095
  Thomas-Fermi vector in A             =   2.665870
 
 Write flags
   LWAVE        =      F    write WAVECAR
   LDOWNSAMPLE  =      F    k-point downsampling of WAVECAR
   LCHARG       =      F    write CHGCAR
   LVTOT        =      F    write LOCPOT, total local potential
   LVHAR        =      F    write LOCPOT, Hartree potential only
   WRT_POTENTIAL= false  ! write potential to hdf5 file
   LELF         =      F    write electronic localiz. function (ELF)
   LORBIT       =     11    0 simple, 1 ext, 2 COOP (PROOUT), +10 PAW based schemes


 Dipole corrections
   LMONO      =      F    monopole corrections only (constant potential shift)
   LDIPOL     =      F    correct potential (dipole corrections)
   IDIPOL     =      0    1-x, 2-y, 3-z, 4-all directions 
   EPSILON    =  1.0000000 bulk dielectric constant
   LVACPOTAV  =      F  vacuum potentials using an averaging scheme for the charge density
   VACPOTFLAT =  0.1000000 required flatness to determine vacuum potential
 Exchange correlation treatment:
   GGA     = PE    functional components
   XC_C    = 1    coefficients multiplying the functional components
   LIBXC   =     F    Libxc                    
   VOSKOWN =     0    Vosko Wilk Nusair interpolation
   LHFCALC =     F    Hartree Fock is set to
   LHFONE  =     F    Hartree Fock one center treatment
   AEXX    =    0.0000 exact exchange contribution

 Parameters of functionals:
   PE:
     No parameter
 
 Van der Waals corrections
   IVDW    =    12    specifies the selected vdW correction

 Linear response parameters
   LEPSILON=     F    determine dielectric tensor
   LRPA    =     F    only Hartree local field effects (RPA)
   LNABLA  =     F    use nabla operator in PAW spheres
   LVEL    =     F    velocity operator in full k-point grid
   CSHIFT  =0.1000    complex shift for real part using Kramers Kronig
   OMEGAMAX=  -1.0    maximum frequency
   DEG_THRESHOLD= 0.2000000E-02 threshold for treating states as degnerate
   RTIME   =   -0.100 relaxation time in fs
  (WPLASMAI=    0.000 imaginary part of plasma frequency in eV, 0.658/RTIME)
   DFIELD  = 0.0000000 0.0000000 0.0000000 field for delta impulse in time
 
  Optional k-point grid parameters
   LKPOINTS_OPT  =     F    use optional k-point grid
   KPOINTS_OPT_MODE=     1    mode for optional k-point grid
 
 Orbital magnetization related:
   ORBITALMAG=     F  switch on orbital magnetization
   LCHIMAG   =     F  perturbation theory with respect to B field
   DQ        =  0.001000  dq finite difference perturbation B field
   LLRAUG    =     F  two centre corrections for induced B field
   LBONE     =     F  B-component reconstruction in AE one-centre
   LVGVCALC  =     T  calculate vGv susceptibility
   LVGVAPPL  =     F  apply vGv susceptibility instead of pGv for G=0

 Random number generation:
   RANDOM_GENERATOR = DEFAULT
   PCG_SEED         = not used


--------------------------------------------------------------------------------------------------------


 Static calculation
 charge density and potential will be updated during run
 spin polarized calculation
 Variant of blocked Davidson
 Davidson routine will perform the subspace rotation
 perform sub-space diagonalisation
    after iterative eigenvector-optimisation
 modified Broyden-mixing scheme, WC =      100.0
 initial mixing is a Kerker type mixing with AMIX =  0.4000 and BMIX =      1.0000
 Hartree-type preconditioning will be used
 using additional bands             8
 reciprocal scheme for non local part
 use partial core corrections
 calculate Harris-corrections to forces 
   (improved forces if not selfconsistent)
 use gradient corrections 
 use of overlap-Matrix (Vanderbilt PP)
 Gauss-broadening in eV      SIGMA  =   0.05


--------------------------------------------------------------------------------------------------------


  energy-cutoff  :      500.00
  volume of cell :       64.34
      direct lattice vectors                 reciprocal lattice vectors
     4.522230460  0.000000000  0.000000000     0.221129818 -0.000000000  0.000000000
     0.000000000  4.522230460  0.000000000     0.000000000  0.221129818  0.000000000
     0.000000000  0.000000000  3.146273630    -0.000000000 -0.000000000  0.317836310

  length of vectors
     4.522230460  4.522230460  3.146273630     0.221129818  0.221129818  0.317836310


 
 k-points in units of 2pi/SCALE and weight: Automatic mesh                          
   0.00000000  0.00000000  0.00000000       0.003
   0.03685497  0.00000000  0.00000000       0.014
   0.07370994  0.00000000  0.00000000       0.014
   0.11056491  0.00000000  0.00000000       0.007
   0.03685497  0.03685497  0.00000000       0.014
   0.07370994  0.03685497  0.00000000       0.028
   0.11056491  0.03685497  0.00000000       0.014
   0.07370994  0.07370994  0.00000000       0.014
   0.11056491  0.07370994  0.00000000       0.014
   0.11056491  0.11056491  0.00000000       0.003
   0.00000000  0.00000000  0.03972954       0.007
   0.03685497  0.00000000  0.03972954       0.028
   0.07370994  0.00000000  0.03972954       0.028
   0.11056491  0.00000000  0.03972954       0.014
   0.03685497  0.03685497  0.03972954       0.028
   0.07370994  0.03685497  0.03972954       0.056
   0.11056491  0.03685497  0.03972954       0.028
   0.07370994  0.07370994  0.03972954       0.028
   0.11056491  0.07370994  0.03972954       0.028
   0.11056491  0.11056491  0.03972954       0.007
   0.00000000  0.00000000  0.07945908       0.007
   0.03685497  0.00000000  0.07945908       0.028
   0.07370994  0.00000000  0.07945908       0.028
   0.11056491  0.00000000  0.07945908       0.014
   0.03685497  0.03685497  0.07945908       0.028
   0.07370994  0.03685497  0.07945908       0.056
   0.11056491  0.03685497  0.07945908       0.028
   0.07370994  0.07370994  0.07945908       0.028
   0.11056491  0.07370994  0.07945908       0.028
   0.11056491  0.11056491  0.07945908       0.007
   0.00000000  0.00000000  0.11918862       0.007
   0.03685497  0.00000000  0.11918862       0.028
   0.07370994  0.00000000  0.11918862       0.028
   0.11056491  0.00000000  0.11918862       0.014
   0.03685497  0.03685497  0.11918862       0.028
   0.07370994  0.03685497  0.11918862       0.056
   0.11056491  0.03685497  0.11918862       0.028
   0.07370994  0.07370994  0.11918862       0.028
   0.11056491  0.07370994  0.11918862       0.028
   0.11056491  0.11056491  0.11918862       0.007
   0.00000000  0.00000000  0.15891815       0.003
   0.03685497  0.00000000  0.15891815       0.014
   0.07370994  0.00000000  0.15891815       0.014
   0.11056491  0.00000000  0.15891815       0.007
   0.03685497  0.03685497  0.15891815       0.014
   0.07370994  0.03685497  0.15891815       0.028
   0.11056491  0.03685497  0.15891815       0.014
   0.07370994  0.07370994  0.15891815       0.014
   0.11056491  0.07370994  0.15891815       0.014
   0.11056491  0.11056491  0.15891815       0.003
 
 k-points in reciprocal lattice and weights: Automatic mesh                          
   0.00000000  0.00000000  0.00000000       0.003
   0.16666667  0.00000000  0.00000000       0.014
   0.33333333  0.00000000  0.00000000       0.014
   0.50000000  0.00000000  0.00000000       0.007
   0.16666667  0.16666667  0.00000000       0.014
   0.33333333  0.16666667  0.00000000       0.028
   0.50000000  0.16666667  0.00000000       0.014
   0.33333333  0.33333333  0.00000000       0.014
   0.50000000  0.33333333  0.00000000       0.014
   0.50000000  0.50000000  0.00000000       0.003
   0.00000000  0.00000000  0.12500000       0.007
   0.16666667  0.00000000  0.12500000       0.028
   0.33333333  0.00000000  0.12500000       0.028
   0.50000000  0.00000000  0.12500000       0.014
   0.16666667  0.16666667  0.12500000       0.028
   0.33333333  0.16666667  0.12500000       0.056
   0.50000000  0.16666667  0.12500000       0.028
   0.33333333  0.33333333  0.12500000       0.028
   0.50000000  0.33333333  0.12500000       0.028
   0.50000000  0.50000000  0.12500000       0.007
   0.00000000  0.00000000  0.25000000       0.007
   0.16666667  0.00000000  0.25000000       0.028
   0.33333333  0.00000000  0.25000000       0.028
   0.50000000  0.00000000  0.25000000       0.014
   0.16666667  0.16666667  0.25000000       0.028
   0.33333333  0.16666667  0.25000000       0.056
   0.50000000  0.16666667  0.25000000       0.028
   0.33333333  0.33333333  0.25000000       0.028
   0.50000000  0.33333333  0.25000000       0.028
   0.50000000  0.50000000  0.25000000       0.007
   0.00000000  0.00000000  0.37500000       0.007
   0.16666667  0.00000000  0.37500000       0.028
   0.33333333  0.00000000  0.37500000       0.028
   0.50000000  0.00000000  0.37500000       0.014
   0.16666667  0.16666667  0.37500000       0.028
   0.33333333  0.16666667  0.37500000       0.056
   0.50000000  0.16666667  0.37500000       0.028
   0.33333333  0.33333333  0.37500000       0.028
   0.50000000  0.33333333  0.37500000       0.028
   0.50000000  0.50000000  0.37500000       0.007
   0.00000000  0.00000000  0.50000000       0.003
   0.16666667  0.00000000  0.50000000       0.014
   0.33333333  0.00000000  0.50000000       0.014
   0.50000000  0.00000000  0.50000000       0.007
   0.16666667  0.16666667  0.50000000       0.014
   0.33333333  0.16666667  0.50000000       0.028
   0.50000000  0.16666667  0.50000000       0.014
   0.33333333  0.33333333  0.50000000       0.014
   0.50000000  0.33333333  0.50000000       0.014
   0.50000000  0.50000000  0.50000000       0.003
 
 position of ions in fractional coordinates (direct lattice) 
   0.50000000  0.50000000  0.50000000
   0.00000000  0.00000000  0.00000000
   0.80815192  0.19184808  0.50000000
   0.19184808  0.80815192  0.50000000
   0.30815192  0.30815192  0.00000000
   0.69184808  0.69184808  0.00000000
 
 position of ions in cartesian coordinates  (Angst):
   2.26111523  2.26111523  1.57313682
   0.00000000  0.00000000  0.00000000
   3.65464923  0.86758123  1.57313682
   0.86758123  3.65464923  1.57313682
   1.39353400  1.39353400  0.00000000
   3.12869646  3.12869646  0.00000000
 


--------------------------------------------------------------------------------------------------------


 k-point     1 :   0.0000 0.0000 0.0000  plane waves:    1623
 k-point     2 :   0.1667 0.0000 0.0000  plane waves:    1623
 k-point     3 :   0.3333 0.0000 0.0000  plane waves:    1634
 k-point     4 :   0.5000 0.0000 0.0000  plane waves:    1644
 k-point     5 :   0.1667 0.1667 0.0000  plane waves:    1627
 k-point     6 :   0.3333 0.1667 0.0000  plane waves:    1633
 k-point     7 :   0.5000 0.1667 0.0000  plane waves:    1642
 k-point     8 :   0.3333 0.3333 0.0000  plane waves:    1642
 k-point     9 :   0.5000 0.3333 0.0000  plane waves:    1652
 k-point    10 :   0.5000 0.5000 0.0000  plane waves:    1640
 k-point    11 :   0.0000 0.0000 0.1250  plane waves:    1635
 k-point    12 :   0.1667 0.0000 0.1250  plane waves:    1636
 k-point    13 :   0.3333 0.0000 0.1250  plane waves:    1638
 k-point    14 :   0.5000 0.0000 0.1250  plane waves:    1644
 k-point    15 :   0.1667 0.1667 0.1250  plane waves:    1623
 k-point    16 :   0.3333 0.1667 0.1250  plane waves:    1631
 k-point    17 :   0.5000 0.1667 0.1250  plane waves:    1638
 k-point    18 :   0.3333 0.3333 0.1250  plane waves:    1635
 k-point    19 :   0.5000 0.3333 0.1250  plane waves:    1638
 k-point    20 :   0.5000 0.5000 0.1250  plane waves:    1652
 k-point    21 :   0.0000 0.0000 0.2500  plane waves:    1631
 k-point    22 :   0.1667 0.0000 0.2500  plane waves:    1633
 k-point    23 :   0.3333 0.0000 0.2500  plane waves:    1631
 k-point    24 :   0.5000 0.0000 0.2500  plane waves:    1640
 k-point    25 :   0.1667 0.1667 0.2500  plane waves:    1639
 k-point    26 :   0.3333 0.1667 0.2500  plane waves:    1630
 k-point    27 :   0.5000 0.1667 0.2500  plane waves:    1634
 k-point    28 :   0.3333 0.3333 0.2500  plane waves:    1626
 k-point    29 :   0.5000 0.3333 0.2500  plane waves:    1624
 k-point    30 :   0.5000 0.5000 0.2500  plane waves:    1624
 k-point    31 :   0.0000 0.0000 0.3750  plane waves:    1628
 k-point    32 :   0.1667 0.0000 0.3750  plane waves:    1642
 k-point    33 :   0.3333 0.0000 0.3750  plane waves:    1627
 k-point    34 :   0.5000 0.0000 0.3750  plane waves:    1630
 k-point    35 :   0.1667 0.1667 0.3750  plane waves:    1642
 k-point    36 :   0.3333 0.1667 0.3750  plane waves:    1632
 k-point    37 :   0.5000 0.1667 0.3750  plane waves:    1638
 k-point    38 :   0.3333 0.3333 0.3750  plane waves:    1628
 k-point    39 :   0.5000 0.3333 0.3750  plane waves:    1636
 k-point    40 :   0.5000 0.5000 0.3750  plane waves:    1632
 k-point    41 :   0.0000 0.0000 0.5000  plane waves:    1660
 k-point    42 :   0.1667 0.0000 0.5000  plane waves:    1648
 k-point    43 :   0.3333 0.0000 0.5000  plane waves:    1630
 k-point    44 :   0.5000 0.0000 0.5000  plane waves:    1620
 k-point    45 :   0.1667 0.1667 0.5000  plane waves:    1644
 k-point    46 :   0.3333 0.1667 0.5000  plane waves:    1636
 k-point    47 :   0.5000 0.1667 0.5000  plane waves:    1620
 k-point    48 :   0.3333 0.3333 0.5000  plane waves:    1632
 k-point    49 :   0.5000 0.3333 0.5000  plane waves:    1632
 k-point    50 :   0.5000 0.5000 0.5000  plane waves:    1648

 maximum and minimum number of plane-waves per node :      1660     1620

 maximum number of plane-waves:      1660
 maximum index in each direction: 
   IXMAX=    8   IYMAX=    8   IZMAX=    5
   IXMIN=   -8   IYMIN=   -8   IZMIN=   -6


 serial   3D FFT for wavefunctions
 parallel 3D FFT for charge:
    minimum data exchange during FFTs selected (reduces bandwidth)


 total amount of memory used by VASP MPI-rank0    96201. kBytes
=======================================================================

   base      :      30000. kBytes
   nonl-proj :      24063. kBytes
   fftplans  :       9397. kBytes
   grid      :       7672. kBytes
   one-center:        186. kBytes
   wavefun   :      24883. kBytes
 
     INWAV:  cpu time      0.0000: real time      0.0001
 Broyden mixing: mesh for mixing (old mesh)
   NGX = 17   NGY = 17   NGZ = 11
  (NGX  = 72   NGY  = 72   NGZ  = 48)
  gives a total of   3179 points

 initial charge density was supplied:
 charge density of overlapping atoms calculated
 number of electron      56.0000000 magnetization       6.0000000
 keeping initial charge density in first step


--------------------------------------------------------------------------------------------------------


 Maximum index for augmentation-charges         37643 (set IRDMAX)


--------------------------------------------------------------------------------------------------------


 First call to EWALD:  gamma=   0.442
 Maximum number of real-space cells 2x 2x 3
 Maximum number of reciprocal cells 3x 3x 2

    FEWALD:  cpu time      0.0004: real time      0.0004


--------------------------------------- Ionic step        1  -------------------------------------------




--------------------------------------- Iteration      1(   1)  ---------------------------------------


    POTLOK:  cpu time      0.0469: real time      0.0470
    SETDIJ:  cpu time      0.8243: real time      0.8591
     EDDAV:  cpu time      3.4888: real time      3.5163
       DOS:  cpu time      0.0006: real time      0.0006
    --------------------------------------------
      LOOP:  cpu time      4.3606: real time      4.4230

 eigenvalue-minimisations  :  7480
 total energy-change (2. order) : 0.5762069E+03  (-0.3364753E+04)
 number of electron      56.0000000 magnetization       6.0000000
 augmentation part       56.0000000 magnetization       6.0000000

 Free energy of the ion-electron system (eV)
  ---------------------------------------------------
  alpha Z        PSCENC =       302.45619847
  Ewald energy   TEWEN  =     -5214.09126118
  -Hartree energ DENC   =     -1860.07067583
  -exchange      EXHF   =         0.00000000
  -V(xc)+E(xc)   XCENC  =       277.13147676
  PAW double counting   =      5901.46612542    -5850.99266113
  entropy T*S    EENTRO =        -0.00157222
  eigenvalues    EBANDS =        47.79193435
  atomic energy  EATOM  =      6972.51738450
  Solvation  Ediel_sol  =         0.00000000
  ---------------------------------------------------
  free energy    TOTEN  =       576.20694914 eV

  energy without entropy =      576.20852136  energy(sigma->0) =      576.20773525


--------------------------------------------------------------------------------------------------------




--------------------------------------- Iteration      1(   2)  ---------------------------------------


     EDDAV:  cpu time      3.5051: real time      3.5172
       DOS:  cpu time      0.0005: real time      0.0005
    --------------------------------------------
      LOOP:  cpu time      3.5056: real time      3.5178

 eigenvalue-minimisations  :  8312
 total energy-change (2. order) :-0.5849072E+03  (-0.5635360E+03)
 number of electron      56.0000000 magnetization       6.0000000
 augmentation part       56.0000000 magnetization       6.0000000

 Free energy of the ion-electron system (eV)
  ---------------------------------------------------
  alpha Z        PSCENC =       302.45619847
  Ewald energy   TEWEN  =     -5214.09126118
  -Hartree energ DENC   =     -1860.07067583
  -exchange      EXHF   =         0.00000000
  -V(xc)+E(xc)   XCENC  =       277.13147676
  PAW double counting   =      5901.46612542    -5850.99266113
  entropy T*S    EENTRO =        -0.00214046
  eigenvalues    EBANDS =      -537.11468304
  atomic energy  EATOM  =      6972.51738450
  Solvation  Ediel_sol  =         0.00000000
  ---------------------------------------------------
  free energy    TOTEN  =        -8.70023649 eV

  energy without entropy =       -8.69809603  energy(sigma->0) =       -8.69916626


--------------------------------------------------------------------------------------------------------




--------------------------------------- Iteration      1(   3)  ---------------------------------------


     EDDAV:  cpu time      3.3471: real time      3.3519
       DOS:  cpu time      0.0005: real time      0.0005
    --------------------------------------------
      LOOP:  cpu time      3.3477: real time      3.3524

 eigenvalue-minimisations  :  7876
 total energy-change (2. order) :-0.3188738E+02  (-0.3156454E+02)
 number of electron      56.0000000 magnetization       6.0000000
 augmentation part       56.0000000 magnetization       6.0000000

 Free energy of the ion-electron system (eV)
  ---------------------------------------------------
  alpha Z        PSCENC =       302.45619847
  Ewald energy   TEWEN  =     -5214.09126118
  -Hartree energ DENC   =     -1860.07067583
  -exchange      EXHF   =         0.00000000
  -V(xc)+E(xc)   XCENC  =       277.13147676
  PAW double counting   =      5901.46612542    -5850.99266113
  entropy T*S    EENTRO =        -0.00413329
  eigenvalues    EBANDS =      -569.00006685
  atomic energy  EATOM  =      6972.51738450
  Solvation  Ediel_sol  =         0.00000000
  ---------------------------------------------------
  free energy    TOTEN  =       -40.58761313 eV

  energy without entropy =      -40.58347984  energy(sigma->0) =      -40.58554649


--------------------------------------------------------------------------------------------------------




--------------------------------------- Iteration      1(   4)  ---------------------------------------


     EDDAV:  cpu time      3.3654: real time      3.3697
       DOS:  cpu time      0.0005: real time      0.0005
    --------------------------------------------
      LOOP:  cpu time      3.3659: real time      3.3702

 eigenvalue-minimisations  :  7948
 total energy-change (2. order) :-0.4000429E+00  (-0.3994317E+00)
 number of electron      56.0000000 magnetization       6.0000000
 augmentation part       56.0000000 magnetization       6.0000000

 Free energy of the ion-electron system (eV)
  ---------------------------------------------------
  alpha Z        PSCENC =       302.45619847
  Ewald energy   TEWEN  =     -5214.09126118
  -Hartree energ DENC   =     -1860.07067583
  -exchange      EXHF   =         0.00000000
  -V(xc)+E(xc)   XCENC  =       277.13147676
  PAW double counting   =      5901.46612542    -5850.99266113
  entropy T*S    EENTRO =        -0.00412048
  eigenvalues    EBANDS =      -569.40012260
  atomic energy  EATOM  =      6972.51738450
  Solvation  Ediel_sol  =         0.00000000
  ---------------------------------------------------
  free energy    TOTEN  =       -40.98765607 eV

  energy without entropy =      -40.98353560  energy(sigma->0) =      -40.98559584


--------------------------------------------------------------------------------------------------------




--------------------------------------- Iteration      1(   5)  ---------------------------------------


     EDDAV:  cpu time      3.2928: real time      3.2983
       DOS:  cpu time      0.0005: real time      0.0005
    CHARGE:  cpu time      0.3046: real time      0.3051
    MIXING:  cpu time      0.0016: real time      0.0016
    --------------------------------------------
      LOOP:  cpu time      3.5995: real time      3.6055

 eigenvalue-minimisations  :  7712
 total energy-change (2. order) :-0.4594414E-02  (-0.4594064E-02)
 number of electron      56.0000002 magnetization       0.0868399
 augmentation part       16.7786978 magnetization      -0.0635179

 Broyden mixing:
  rms(total) = 0.28115E+01    rms(broyden)= 0.28110E+01
  rms(prec ) = 0.53305E+01
  weight for this iteration     100.00

 Free energy of the ion-electron system (eV)
  ---------------------------------------------------
  alpha Z        PSCENC =       302.45619847
  Ewald energy   TEWEN  =     -5214.09126118
  -Hartree energ DENC   =     -1860.07067583
  -exchange      EXHF   =         0.00000000
  -V(xc)+E(xc)   XCENC  =       277.13147676
  PAW double counting   =      5901.46612542    -5850.99266113
  entropy T*S    EENTRO =        -0.00412033
  eigenvalues    EBANDS =      -569.40471716
  atomic energy  EATOM  =      6972.51738450
  Solvation  Ediel_sol  =         0.00000000
  ---------------------------------------------------
  free energy    TOTEN  =       -40.99225049 eV

  energy without entropy =      -40.98813016  energy(sigma->0) =      -40.99019032


--------------------------------------------------------------------------------------------------------




--------------------------------------- Iteration      1(   6)  ---------------------------------------


    POTLOK:  cpu time      0.0468: real time      0.0468
    SETDIJ:  cpu time      0.5816: real time      0.5820
     EDDAV:  cpu time      3.2955: real time      3.2984
       DOS:  cpu time      0.0005: real time      0.0005
    CHARGE:  cpu time      0.3143: real time      0.3147
    MIXING:  cpu time      0.0014: real time      0.0014
    --------------------------------------------
      LOOP:  cpu time      4.2400: real time      4.2438

 eigenvalue-minimisations  :  7708
 total energy-change (2. order) : 0.5359414E+01  (-0.5155476E+01)
 number of electron      56.0000002 magnetization      -0.2960818
 augmentation part       18.3655062 magnetization       0.0184767

 Broyden mixing:
  rms(total) = 0.15608E+01    rms(broyden)= 0.15601E+01
  rms(prec ) = 0.33650E+01
  weight for this iteration     100.00

 eigenvalues of (default mixing * dielectric matrix)
  average eigenvalue GAMMA=   0.7317
  0.7317

 Free energy of the ion-electron system (eV)
  ---------------------------------------------------
  alpha Z        PSCENC =       302.45619847
  Ewald energy   TEWEN  =     -5214.09126118
  -Hartree energ DENC   =     -1784.45361113
  -exchange      EXHF   =         0.00000000
  -V(xc)+E(xc)   XCENC  =       276.15690256
  PAW double counting   =      6061.81759108    -6025.65121909
  entropy T*S    EENTRO =        -0.00892852
  eigenvalues    EBANDS =      -624.37589354
  atomic energy  EATOM  =      6972.51738450
  Solvation  Ediel_sol  =         0.00000000
  ---------------------------------------------------
  free energy    TOTEN  =       -35.63283685 eV

  energy without entropy =      -35.62390833  energy(sigma->0) =      -35.62837259


--------------------------------------------------------------------------------------------------------




--------------------------------------- Iteration      1(   7)  ---------------------------------------


    POTLOK:  cpu time      0.0458: real time      0.0459
    SETDIJ:  cpu time      0.5789: real time      0.5798
     EDDAV:  cpu time      3.2592: real time      3.2620
       DOS:  cpu time      0.0006: real time      0.0006
    CHARGE:  cpu time      0.3138: real time      0.3138
    MIXING:  cpu time      0.0015: real time      0.0015
    --------------------------------------------
      LOOP:  cpu time      4.1997: real time      4.2034

 eigenvalue-minimisations  :  7548
 total energy-change (2. order) : 0.3440175E+01  (-0.1572980E+01)
 number of electron      56.0000002 magnetization      -0.3478507
 augmentation part       17.4102946 magnetization      -0.1837077

 Broyden mixing:
  rms(total) = 0.53887E+00    rms(broyden)= 0.53869E+00
  rms(prec ) = 0.84506E+00
  weight for this iteration     100.00

 eigenvalues of (default mixing * dielectric matrix)
  average eigenvalue GAMMA=   0.7246
  0.9176  0.5316

 Free energy of the ion-electron system (eV)
  ---------------------------------------------------
  alpha Z        PSCENC =       302.45619847
  Ewald energy   TEWEN  =     -5214.09126118
  -Hartree energ DENC   =     -1819.83964133
  -exchange      EXHF   =         0.00000000
  -V(xc)+E(xc)   XCENC  =       276.58249448
  PAW double counting   =      6244.00992014    -6205.48207089
  entropy T*S    EENTRO =        -0.00534068
  eigenvalues    EBANDS =      -588.34034488
  atomic energy  EATOM  =      6972.51738450
  Solvation  Ediel_sol  =         0.00000000
  ---------------------------------------------------
  free energy    TOTEN  =       -32.19266138 eV

  energy without entropy =      -32.18732071  energy(sigma->0) =      -32.18999104


--------------------------------------------------------------------------------------------------------




--------------------------------------- Iteration      1(   8)  ---------------------------------------


    POTLOK:  cpu time      0.0472: real time      0.0473
    SETDIJ:  cpu time      0.5819: real time      0.5826
     EDDAV:  cpu time      3.2719: real time      3.2749
       DOS:  cpu time      0.0005: real time      0.0005
    CHARGE:  cpu time      0.3065: real time      0.3066
    MIXING:  cpu time      0.0017: real time      0.0017
    --------------------------------------------
      LOOP:  cpu time      4.2096: real time      4.2137

 eigenvalue-minimisations  :  7644
 total energy-change (2. order) : 0.5235219E-01  (-0.1271705E+00)
 number of electron      56.0000002 magnetization      -0.3031703
 augmentation part       17.5354527 magnetization      -0.1281892

 Broyden mixing:
  rms(total) = 0.30113E+00    rms(broyden)= 0.30112E+00
  rms(prec ) = 0.41694E+00
  weight for this iteration     100.00

 eigenvalues of (default mixing * dielectric matrix)
  average eigenvalue GAMMA=   1.0453
  0.5593  0.8658  1.7106

 Free energy of the ion-electron system (eV)
  ---------------------------------------------------
  alpha Z        PSCENC =       302.45619847
  Ewald energy   TEWEN  =     -5214.09126118
  -Hartree energ DENC   =     -1808.58854740
  -exchange      EXHF   =         0.00000000
  -V(xc)+E(xc)   XCENC  =       276.19507856
  PAW double counting   =      6363.77447190    -6327.51812168
  entropy T*S    EENTRO =        -0.00511593
  eigenvalues    EBANDS =      -596.88039642
  atomic energy  EATOM  =      6972.51738450
  Solvation  Ediel_sol  =         0.00000000
  ---------------------------------------------------
  free energy    TOTEN  =       -32.14030919 eV

  energy without entropy =      -32.13519326  energy(sigma->0) =      -32.13775123


--------------------------------------------------------------------------------------------------------




--------------------------------------- Iteration      1(   9)  ---------------------------------------


    POTLOK:  cpu time      0.0461: real time      0.0466
    SETDIJ:  cpu time      0.5817: real time      0.5824
     EDDAV:  cpu time      3.3100: real time      3.3116
       DOS:  cpu time      0.0005: real time      0.0005
    CHARGE:  cpu time      0.3094: real time      0.3094
    MIXING:  cpu time      0.0017: real time      0.0017
    --------------------------------------------
      LOOP:  cpu time      4.2494: real time      4.2522

 eigenvalue-minimisations  :  7824
 total energy-change (2. order) : 0.2649612E-01  (-0.1304169E-01)
 number of electron      56.0000002 magnetization      -0.2907231
 augmentation part       17.6119719 magnetization      -0.1120748

 Broyden mixing:
  rms(total) = 0.84794E-01    rms(broyden)= 0.84779E-01
  rms(prec ) = 0.15302E+00
  weight for this iteration     100.00

 eigenvalues of (default mixing * dielectric matrix)
  average eigenvalue GAMMA=   1.1367
  2.3688  0.8632  0.5805  0.7345

 Free energy of the ion-electron system (eV)
  ---------------------------------------------------
  alpha Z        PSCENC =       302.45619847
  Ewald energy   TEWEN  =     -5214.09126118
  -Hartree energ DENC   =     -1802.19938259
  -exchange      EXHF   =         0.00000000
  -V(xc)+E(xc)   XCENC  =       276.10169451
  PAW double counting   =      6553.01310967    -6519.05500402
  entropy T*S    EENTRO =        -0.00557284
  eigenvalues    EBANDS =      -600.85097960
  atomic energy  EATOM  =      6972.51738450
  Solvation  Ediel_sol  =         0.00000000
  ---------------------------------------------------
  free energy    TOTEN  =       -32.11381308 eV

  energy without entropy =      -32.10824024  energy(sigma->0) =      -32.11102666


--------------------------------------------------------------------------------------------------------




--------------------------------------- Iteration      1(  10)  ---------------------------------------


    POTLOK:  cpu time      0.0460: real time      0.0461
    SETDIJ:  cpu time      0.5849: real time      0.5850
     EDDAV:  cpu time      3.3577: real time      3.3584
       DOS:  cpu time      0.0006: real time      0.0006
    CHARGE:  cpu time      0.3087: real time      0.3088
    MIXING:  cpu time      0.0017: real time      0.0017
    --------------------------------------------
      LOOP:  cpu time      4.2998: real time      4.3007

 eigenvalue-minimisations  :  7672
 total energy-change (2. order) : 0.3152651E-02  (-0.1780590E-02)
 number of electron      56.0000002 magnetization      -0.2996977
 augmentation part       17.5840430 magnetization      -0.1212678

 Broyden mixing:
  rms(total) = 0.27508E-01    rms(broyden)= 0.27503E-01
  rms(prec ) = 0.43240E-01
  weight for this iteration     100.00

 eigenvalues of (default mixing * dielectric matrix)
  average eigenvalue GAMMA=   1.1196
  2.5317  0.9347  0.9347  0.6209  0.5759

 Free energy of the ion-electron system (eV)
  ---------------------------------------------------
  alpha Z        PSCENC =       302.45619847
  Ewald energy   TEWEN  =     -5214.09126118
  -Hartree energ DENC   =     -1803.00753012
  -exchange      EXHF   =         0.00000000
  -V(xc)+E(xc)   XCENC  =       276.12004311
  PAW double counting   =      6600.49042084    -6566.67805126
  entropy T*S    EENTRO =        -0.00537222
  eigenvalues    EBANDS =      -599.91249256
  atomic energy  EATOM  =      6972.51738450
  Solvation  Ediel_sol  =         0.00000000
  ---------------------------------------------------
  free energy    TOTEN  =       -32.11066043 eV

  energy without entropy =      -32.10528821  energy(sigma->0) =      -32.10797432


--------------------------------------------------------------------------------------------------------




--------------------------------------- Iteration      1(  11)  ---------------------------------------


    POTLOK:  cpu time      0.0461: real time      0.0462
    SETDIJ:  cpu time      0.5817: real time      0.5817
     EDDAV:  cpu time      3.2612: real time      3.2974
       DOS:  cpu time      0.0005: real time      0.0005
    CHARGE:  cpu time      0.3118: real time      0.3119
    MIXING:  cpu time      0.0015: real time      0.0015
    --------------------------------------------
      LOOP:  cpu time      4.2028: real time      4.2392

 eigenvalue-minimisations  :  7628
 total energy-change (2. order) :-0.9454689E-05  (-0.2030994E-03)
 number of electron      56.0000002 magnetization      -0.3168251
 augmentation part       17.5782231 magnetization      -0.1340918

 Broyden mixing:
  rms(total) = 0.11814E-01    rms(broyden)= 0.11809E-01
  rms(prec ) = 0.17989E-01
  weight for this iteration     100.00

 eigenvalues of (default mixing * dielectric matrix)
  average eigenvalue GAMMA=   1.0861
  2.5061  1.0524  1.0524  0.5635  0.6710  0.6710

 Free energy of the ion-electron system (eV)
  ---------------------------------------------------
  alpha Z        PSCENC =       302.45619847
  Ewald energy   TEWEN  =     -5214.09126118
  -Hartree energ DENC   =     -1803.53813147
  -exchange      EXHF   =         0.00000000
  -V(xc)+E(xc)   XCENC  =       276.13321401
  PAW double counting   =      6604.23716976    -6570.32137344
  entropy T*S    EENTRO =        -0.00524205
  eigenvalues    EBANDS =      -599.49862848
  atomic energy  EATOM  =      6972.51738450
  Solvation  Ediel_sol  =         0.00000000
  ---------------------------------------------------
  free energy    TOTEN  =       -32.11066988 eV

  energy without entropy =      -32.10542784  energy(sigma->0) =      -32.10804886


--------------------------------------------------------------------------------------------------------




--------------------------------------- Iteration      1(  12)  ---------------------------------------


    POTLOK:  cpu time      0.0469: real time      0.0470
    SETDIJ:  cpu time      0.5833: real time      0.5833
     EDDAV:  cpu time      3.3232: real time      3.3241
       DOS:  cpu time      0.0005: real time      0.0005
    CHARGE:  cpu time      0.3135: real time      0.3136
    MIXING:  cpu time      0.0016: real time      0.0016
    --------------------------------------------
      LOOP:  cpu time      4.2689: real time      4.2701

 eigenvalue-minimisations  :  7788
 total energy-change (2. order) : 0.4105048E-04  (-0.2164364E-04)
 number of electron      56.0000002 magnetization      -0.3267689
 augmentation part       17.5770423 magnetization      -0.1371740

 Broyden mixing:
  rms(total) = 0.52487E-02    rms(broyden)= 0.52452E-02
  rms(prec ) = 0.73378E-02
  weight for this iteration     100.00

 eigenvalues of (default mixing * dielectric matrix)
  average eigenvalue GAMMA=   1.2110
  2.5076  2.0198  1.1061  0.8500  0.7767  0.5672  0.6496

 Free energy of the ion-electron system (eV)
  ---------------------------------------------------
  alpha Z        PSCENC =       302.45619847
  Ewald energy   TEWEN  =     -5214.09126118
  -Hartree energ DENC   =     -1804.12224747
  -exchange      EXHF   =         0.00000000
  -V(xc)+E(xc)   XCENC  =       276.15614230
  PAW double counting   =      6604.11958403    -6570.05594396
  entropy T*S    EENTRO =        -0.00509941
  eigenvalues    EBANDS =      -599.08538611
  atomic energy  EATOM  =      6972.51738450
  Solvation  Ediel_sol  =         0.00000000
  ---------------------------------------------------
  free energy    TOTEN  =       -32.11062883 eV

  energy without entropy =      -32.10552942  energy(sigma->0) =      -32.10807912


--------------------------------------------------------------------------------------------------------




--------------------------------------- Iteration      1(  13)  ---------------------------------------


    POTLOK:  cpu time      0.0464: real time      0.0465
    SETDIJ:  cpu time      0.5840: real time      0.5840
     EDDAV:  cpu time      3.2772: real time      3.2783
       DOS:  cpu time      0.0005: real time      0.0005
    CHARGE:  cpu time      0.3095: real time      0.3095
    MIXING:  cpu time      0.0016: real time      0.0016
    --------------------------------------------
      LOOP:  cpu time      4.2192: real time      4.2203

 eigenvalue-minimisations  :  7652
 total energy-change (2. order) :-0.1548052E-04  (-0.8026326E-05)
 number of electron      56.0000002 magnetization      -0.3272825
 augmentation part       17.5770301 magnetization      -0.1345210

 Broyden mixing:
  rms(total) = 0.12389E-02    rms(broyden)= 0.12324E-02
  rms(prec ) = 0.15187E-02
  weight for this iteration     100.00

 eigenvalues of (default mixing * dielectric matrix)
  average eigenvalue GAMMA=   1.2177
  2.6822  2.2814  1.0526  0.9709  0.7932  0.7593  0.5659  0.6361

 Free energy of the ion-electron system (eV)
  ---------------------------------------------------
  alpha Z        PSCENC =       302.45619847
  Ewald energy   TEWEN  =     -5214.09126118
  -Hartree energ DENC   =     -1804.37708496
  -exchange      EXHF   =         0.00000000
  -V(xc)+E(xc)   XCENC  =       276.16817140
  PAW double counting   =      6605.68601994    -6571.56186130
  entropy T*S    EENTRO =        -0.00503708
  eigenvalues    EBANDS =      -598.90317410
  atomic energy  EATOM  =      6972.51738450
  Solvation  Ediel_sol  =         0.00000000
  ---------------------------------------------------
  free energy    TOTEN  =       -32.11064431 eV

  energy without entropy =      -32.10560723  energy(sigma->0) =      -32.10812577


--------------------------------------------------------------------------------------------------------




--------------------------------------- Iteration      1(  14)  ---------------------------------------


    POTLOK:  cpu time      0.0459: real time      0.0460
    SETDIJ:  cpu time      0.5823: real time      0.5824
     EDDAV:  cpu time      2.8336: real time      2.8343
       DOS:  cpu time      0.0005: real time      0.0005
    CHARGE:  cpu time      0.3095: real time      0.3096
    MIXING:  cpu time      0.0018: real time      0.0018
    --------------------------------------------
      LOOP:  cpu time      3.7736: real time      3.7745

 eigenvalue-minimisations  :  6076
 total energy-change (2. order) :-0.1507609E-05  (-0.2749635E-06)
 number of electron      56.0000002 magnetization      -0.3277779
 augmentation part       17.5769972 magnetization      -0.1345848

 Broyden mixing:
  rms(total) = 0.48606E-03    rms(broyden)= 0.48429E-03
  rms(prec ) = 0.69968E-03
  weight for this iteration     100.00

 eigenvalues of (default mixing * dielectric matrix)
  average eigenvalue GAMMA=   1.2076
  2.7213  2.3234  1.0937  1.0937  0.9291  0.5666  0.7555  0.7555  0.6297

 Free energy of the ion-electron system (eV)
  ---------------------------------------------------
  alpha Z        PSCENC =       302.45619847
  Ewald energy   TEWEN  =     -5214.09126118
  -Hartree energ DENC   =     -1804.38982406
  -exchange      EXHF   =         0.00000000
  -V(xc)+E(xc)   XCENC  =       276.16851109
  PAW double counting   =      6605.72114492    -6571.59062275
  entropy T*S    EENTRO =        -0.00503084
  eigenvalues    EBANDS =      -598.89714597
  atomic energy  EATOM  =      6972.51738450
  Solvation  Ediel_sol  =         0.00000000
  ---------------------------------------------------
  free energy    TOTEN  =       -32.11064582 eV

  energy without entropy =      -32.10561498  energy(sigma->0) =      -32.10813040


--------------------------------------------------------------------------------------------------------




--------------------------------------- Iteration      1(  15)  ---------------------------------------


    POTLOK:  cpu time      0.0465: real time      0.0466
    SETDIJ:  cpu time      0.5824: real time      0.5825
     EDDAV:  cpu time      2.3823: real time      2.3828
       DOS:  cpu time      0.0005: real time      0.0005
    --------------------------------------------
      LOOP:  cpu time      3.0118: real time      3.0123

 eigenvalue-minimisations  :  4520
 total energy-change (2. order) : 0.3504065E-06  (-0.7591645E-07)
 number of electron      56.0000002 magnetization      -0.3277779
 augmentation part       17.5769972 magnetization      -0.1345848

 Free energy of the ion-electron system (eV)
  ---------------------------------------------------
  alpha Z        PSCENC =       302.45619847
  Ewald energy   TEWEN  =     -5214.09126118
  -Hartree energ DENC   =     -1804.38892675
  -exchange      EXHF   =         0.00000000
  -V(xc)+E(xc)   XCENC  =       276.16833332
  PAW double counting   =      6605.46802649    -6571.33394677
  entropy T*S    EENTRO =        -0.00502659
  eigenvalues    EBANDS =      -598.90142696
  atomic energy  EATOM  =      6972.51738450
  Solvation  Ediel_sol  =         0.00000000
  ---------------------------------------------------
  free energy    TOTEN  =       -32.11064547 eV

  energy without entropy =      -32.10561888  energy(sigma->0) =      -32.10813217


--------------------------------------------------------------------------------------------------------




 average (electrostatic) potential at core
  the test charge radii are     1.0504  0.7215
  (the norm of the test charge is              1.0000)
       1 -80.5416       2 -80.5416       3 -70.0460       4 -70.0460       5 -70.0460
       6 -70.0460
 
 
 
 E-fermi :   5.4881     XC(G=0): -11.8267     alpha+bet :-12.2345

 val. band max:        5.4879844548   @ k =   0.1667   0.1667   0.0000
 cond. band min:       5.4947890186   @ k =   0.0000   0.0000   0.5000
 fundamental gap:      0.0068045638
 Fermi energy:         5.4881475779

 spin component 1

 k-point     1 :       0.0000    0.0000    0.0000
  band No.  band energies     occupation 
      1     -46.4070      1.00000
      2     -46.3993      1.00000
      3     -46.2993      1.00000
      4     -46.2993      1.00000
      5     -46.1641      1.00000
      6     -46.1641      1.00000
      7     -13.9391      1.00000
      8     -12.7953      1.00000
      9     -12.0073      1.00000
     10     -12.0073      1.00000
     11      -2.7575      1.00000
     12      -2.5414      1.00000
     13      -1.4124      1.00000
     14      -1.4124      1.00000
     15      -0.9736      1.00000
     16       1.7178      1.00000
     17       2.0034      1.00000
     18       2.0034      1.00000
     19       2.1638      1.00000
     20       2.2612      1.00000
     21       2.2612      1.00000
     22       2.4209      1.00000
     23       2.9489      1.00000
     24       3.3215      1.00000
     25       4.1518      1.00000
     26       4.1518      1.00000
     27       4.7116      1.00000
     28       4.8178      1.00000
     29       5.7720      0.00000
     30       8.1787      0.00000
     31       8.1787      0.00000
     32       9.1705      0.00000
     33      11.6980      0.00000
     34      15.5243      0.00000
     35      15.5243      0.00000
     36      18.3777      0.00000

 k-point     2 :       0.1667    0.0000    0.0000
  band No.  band energies     occupation 
      1     -46.4065      1.00000
      2     -46.3998      1.00000
      3     -46.2991      1.00000
      4     -46.2991      1.00000
      5     -46.1644      1.00000
      6     -46.1644      1.00000
      7     -13.8462      1.00000
      8     -12.8029      1.00000
      9     -12.1074      1.00000
     10     -12.0486      1.00000
     11      -2.5783      1.00000
     12      -2.3276      1.00000
     13      -1.3941      1.00000
     14      -1.3855      1.00000
     15      -0.8092      1.00000
     16       1.2732      1.00000
     17       1.3765      1.00000
     18       1.3969      1.00000
     19       1.9483      1.00000
     20       2.1095      1.00000
     21       2.7154      1.00000
     22       2.8484      1.00000
     23       3.2464      1.00000
     24       3.5884      1.00000
     25       3.8457      1.00000
     26       4.0988      1.00000
     27       4.7257      1.00000
     28       5.4213      0.97058
     29       5.6641      0.00000
     30       8.0720      0.00000
     31       8.1047      0.00000
     32       9.0102      0.00000
     33      12.1033      0.00000
     34      15.4852      0.00000
     35      15.6829      0.00000
     36      18.2451      0.00000

 k-point     3 :       0.3333    0.0000    0.0000
  band No.  band energies     occupation 
      1     -46.4050      1.00000
      2     -46.4012      1.00000
      3     -46.2987      1.00000
      4     -46.2987      1.00000
      5     -46.1649      1.00000
      6     -46.1649      1.00000
      7     -13.5864      1.00000
      8     -12.9101      1.00000
      9     -12.2661      1.00000
     10     -12.1515      1.00000
     11      -2.0964      1.00000
     12      -1.8276      1.00000
     13      -1.3504      1.00000
     14      -1.3339      1.00000
     15      -0.3167      1.00000
     16       0.4108      1.00000
     17       0.4644      1.00000
     18       1.1269      1.00000
     19       1.4042      1.00000
     20       1.4683      1.00000
     21       3.2864      1.00000
     22       3.3557      1.00000
     23       3.5498      1.00000
     24       3.6758      1.00000
     25       3.8855      1.00000
     26       4.0907      1.00000
     27       4.6144      1.00000
     28       5.3007      1.00000
     29       6.5863      0.00000
     30       7.8682      0.00000
     31       7.9310      0.00000
     32       8.5034      0.00000
     33      13.0944      0.00000
     34      15.1224      0.00000
     35      16.1883      0.00000
     36      17.7720      0.00000

 k-point     4 :       0.5000    0.0000    0.0000
  band No.  band energies     occupation 
      1     -46.4031      1.00000
      2     -46.4031      1.00000
      3     -46.2985      1.00000
      4     -46.2985      1.00000
      5     -46.1651      1.00000
      6     -46.1651      1.00000
      7     -13.2252      1.00000
      8     -13.2252      1.00000
      9     -12.2584      1.00000
     10     -12.2584      1.00000
     11      -1.6069      1.00000
     12      -1.6069      1.00000
     13      -1.3171      1.00000
     14      -1.3171      1.00000
     15      -0.0482      1.00000
     16      -0.0482      1.00000
     17       0.4800      1.00000
     18       0.4800      1.00000
     19       1.1520      1.00000
     20       1.1520      1.00000
     21       3.4975      1.00000
     22       3.4975      1.00000
     23       3.8166      1.00000
     24       3.8166      1.00000
     25       3.8914      1.00000
     26       3.8914      1.00000
     27       4.8861      1.00000
     28       4.8861      1.00000
     29       7.6627      0.00000
     30       7.6627      0.00000
     31       7.8010      0.00000
     32       7.8010      0.00000
     33      14.2374      0.00000
     34      14.2374      0.00000
     35      16.9801      0.00000
     36      16.9801      0.00000

 k-point     5 :       0.1667    0.1667    0.0000
  band No.  band energies     occupation 
      1     -46.4060      1.00000
      2     -46.4003      1.00000
      3     -46.2994      1.00000
      4     -46.2987      1.00000
      5     -46.1649      1.00000
      6     -46.1641      1.00000
      7     -13.7666      1.00000
      8     -12.8234      1.00000
      9     -12.2052      1.00000
     10     -12.0436      1.00000
     11      -2.6701      1.00000
     12      -1.9224      1.00000
     13      -1.4284      1.00000
     14      -1.3327      1.00000
     15      -0.6546      1.00000
     16       0.4580      1.00000
     17       1.1911      1.00000
     18       1.5987      1.00000
     19       2.2656      1.00000
     20       2.3618      1.00000
     21       2.4505      1.00000
     22       2.5896      1.00000
     23       3.1819      1.00000
     24       3.6211      1.00000
     25       3.7990      1.00000
     26       4.4118      1.00000
     27       4.6627      1.00000
     28       5.6185      0.00011
     29       5.6572      0.00000
     30       7.8993      0.00000
     31       8.1726      0.00000
     32       8.8314      0.00000
     33      12.4914      0.00000
     34      15.5700      0.00000
     35      15.7289      0.00000
     36      18.1222      0.00000

 k-point     6 :       0.3333    0.1667    0.0000
  band No.  band energies     occupation 
      1     -46.4048      1.00000
      2     -46.4015      1.00000
      3     -46.2993      1.00000
      4     -46.2985      1.00000
      5     -46.1651      1.00000
      6     -46.1644      1.00000
      7     -13.5453      1.00000
      8     -12.9564      1.00000
      9     -12.2859      1.00000
     10     -12.1184      1.00000
     11      -2.4704      1.00000
     12      -1.5638      1.00000
     13      -1.4152      1.00000
     14      -1.3165      1.00000
     15      -0.1982      1.00000
     16      -0.0325      1.00000
     17       1.0638      1.00000
     18       1.1062      1.00000
     19       1.7237      1.00000
     20       1.7832      1.00000
     21       2.9659      1.00000
     22       3.0222      1.00000
     23       3.2312      1.00000
     24       3.5762      1.00000
     25       3.9017      1.00000
     26       4.0501      1.00000
     27       4.8699      1.00000
     28       5.4635      0.75720
     29       6.4788      0.00000
     30       7.7963      0.00000
     31       8.0820      0.00000
     32       8.2944      0.00000
     33      13.4256      0.00000
     34      15.3129      0.00000
     35      16.1578      0.00000
     36      17.6783      0.00000

 k-point     7 :       0.5000    0.1667    0.0000
  band No.  band energies     occupation 
      1     -46.4031      1.00000
      2     -46.4031      1.00000
      3     -46.2989      1.00000
      4     -46.2989      1.00000
      5     -46.1649      1.00000
      6     -46.1649      1.00000
      7     -13.2395      1.00000
      8     -13.2395      1.00000
      9     -12.2303      1.00000
     10     -12.2303      1.00000
     11      -1.9757      1.00000
     12      -1.9757      1.00000
     13      -1.3608      1.00000
     14      -1.3608      1.00000
     15       0.3005      1.00000
     16       0.3005      1.00000
     17       0.7700      1.00000
     18       0.7700      1.00000
     19       1.3259      1.00000
     20       1.3259      1.00000
     21       3.3012      1.00000
     22       3.3012      1.00000
     23       3.6044      1.00000
     24       3.6044      1.00000
     25       3.6194      1.00000
     26       3.6194      1.00000
     27       5.1834      1.00000
     28       5.1834      1.00000
     29       7.4591      0.00000
     30       7.4591      0.00000
     31       7.8962      0.00000
     32       7.8962      0.00000
     33      14.4922      0.00000
     34      14.4922      0.00000
     35      16.9245      0.00000
     36      16.9245      0.00000

 k-point     8 :       0.3333    0.3333    0.0000
  band No.  band energies     occupation 
      1     -46.4041      1.00000
      2     -46.4022      1.00000
      3     -46.2997      1.00000
      4     -46.2989      1.00000
      5     -46.1649      1.00000
      6     -46.1641      1.00000
      7     -13.4306      1.00000
      8     -13.0900      1.00000
      9     -12.2557      1.00000
     10     -12.1142      1.00000
     11      -2.6508      1.00000
     12      -1.9649      1.00000
     13      -1.4603      1.00000
     14      -1.3698      1.00000
     15       0.1930      1.00000
     16       0.5220      1.00000
     17       1.1792      1.00000
     18       1.3190      1.00000
     19       2.2751      1.00000
     20       2.2925      1.00000
     21       2.4242      1.00000
     22       2.5251      1.00000
[...]
      2     -46.5089      1.00000
      3     -46.3701      1.00000
      4     -46.3701      1.00000
      5     -46.2104      1.00000
      6     -46.2104      1.00000
      7     -12.7742      1.00000
      8     -12.7742      1.00000
      9     -12.5120      1.00000
     10     -12.5120      1.00000
     11      -1.6014      1.00000
     12      -1.6014      1.00000
     13      -1.1601      1.00000
     14      -1.1601      1.00000
     15       0.3314      1.00000
     16       0.3314      1.00000
     17       0.9203      1.00000
     18       0.9203      1.00000
     19       1.6145      1.00000
     20       1.6145      1.00000
     21       2.5928      1.00000
     22       2.5928      1.00000
     23       2.6163      1.00000
     24       2.6163      1.00000
     25       3.7452      1.00000
     26       3.7452      1.00000
     27       5.1691      1.00000
     28       5.1691      1.00000
     29       5.4427      0.90079
     30       5.4427      0.90079
     31       8.3919      0.00000
     32       8.3919      0.00000
     33      16.6072      0.00000
     34      16.6072      0.00000
     35      17.6638      0.00000
     36      17.6638      0.00000

 k-point    48 :       0.3333    0.3333    0.5000
  band No.  band energies     occupation 
      1     -46.5088      1.00000
      2     -46.5085      1.00000
      3     -46.3705      1.00000
      4     -46.3701      1.00000
      5     -46.2104      1.00000
      6     -46.2104      1.00000
      7     -12.7686      1.00000
      8     -12.7343      1.00000
      9     -12.5468      1.00000
     10     -12.5150      1.00000
     11      -1.5891      1.00000
     12      -1.2630      1.00000
     13      -1.1876      1.00000
     14      -1.0131      1.00000
     15      -0.6180      1.00000
     16       0.4640      1.00000
     17       0.5568      1.00000
     18       0.8967      1.00000
     19       1.4408      1.00000
     20       1.7213      1.00000
     21       2.5872      1.00000
     22       2.6135      1.00000
     23       2.6170      1.00000
     24       3.1346      1.00000
     25       3.7508      1.00000
     26       4.5298      1.00000
     27       4.8288      1.00000
     28       5.1527      1.00000
     29       5.4227      0.96801
     30       6.4683      0.00000
     31       7.2825      0.00000
     32       8.3560      0.00000
     33      16.3586      0.00000
     34      16.8756      0.00000
     35      17.1607      0.00000
     36      18.0863      0.00000

 k-point    49 :       0.5000    0.3333    0.5000
  band No.  band energies     occupation 
      1     -46.5086      1.00000
      2     -46.5086      1.00000
      3     -46.3704      1.00000
      4     -46.3704      1.00000
      5     -46.2105      1.00000
      6     -46.2105      1.00000
      7     -12.7323      1.00000
      8     -12.7323      1.00000
      9     -12.5469      1.00000
     10     -12.5469      1.00000
     11      -1.3572      1.00000
     12      -1.3572      1.00000
     13      -1.1890      1.00000
     14      -1.1890      1.00000
     15      -0.2289      1.00000
     16      -0.2289      1.00000
     17       0.6702      1.00000
     18       0.6702      1.00000
     19       1.6064      1.00000
     20       1.6064      1.00000
     21       2.6204      1.00000
     22       2.6204      1.00000
     23       3.0731      1.00000
     24       3.0731      1.00000
     25       4.1120      1.00000
     26       4.1120      1.00000
     27       5.1010      1.00000
     28       5.1010      1.00000
     29       5.8785      0.00000
     30       5.8785      0.00000
     31       7.8295      0.00000
     32       7.8295      0.00000
     33      16.5332      0.00000
     34      16.5332      0.00000
     35      17.4348      0.00000
     36      17.4348      0.00000

 k-point    50 :       0.5000    0.5000    0.5000
  band No.  band energies     occupation 
      1     -46.5085      1.00000
      2     -46.5085      1.00000
      3     -46.3706      1.00000
      4     -46.3706      1.00000
      5     -46.2105      1.00000
      6     -46.2105      1.00000
      7     -12.7035      1.00000
      8     -12.7035      1.00000
      9     -12.5722      1.00000
     10     -12.5722      1.00000
     11      -1.2266      1.00000
     12      -1.2266      1.00000
     13      -1.0936      1.00000
     14      -1.0936      1.00000
     15      -0.5950      1.00000
     16      -0.5950      1.00000
     17       0.5643      1.00000
     18       0.5643      1.00000
     19       1.6103      1.00000
     20       1.6103      1.00000
     21       2.6257      1.00000
     22       2.6257      1.00000
     23       3.2484      1.00000
     24       3.2484      1.00000
     25       4.5641      1.00000
     26       4.5641      1.00000
     27       4.6775      1.00000
     28       4.6775      1.00000
     29       6.4646      0.00000
     30       6.4646      0.00000
     31       7.3041      0.00000
     32       7.3041      0.00000
     33      16.4031      0.00000
     34      16.4031      0.00000
     35      17.4620      0.00000
     36      17.4620      0.00000


--------------------------------------------------------------------------------------------------------


 soft charge-density along one line, spin component            1
         0         1         2         3         4         5         6         7         8         9
 total charge-density along one line
 
 soft charge-density along one line, spin component            2
         0         1         2         3         4         5         6         7         8         9
 total charge-density along one line
 
 pseudopotential strength for first ion, spin component:            1
-40.496  -0.000   0.032  10.120   0.000  -0.019   0.000   0.000
 -0.000 -40.595  -0.000   0.000  10.175   0.000   0.000   0.000
  0.032  -0.000 -40.496  -0.019   0.000  10.120   0.000   0.000
 10.120   0.000  -0.019   7.363  -0.000   0.005  -0.000  -0.000
  0.000  10.175   0.000  -0.000   7.351  -0.000  -0.000  -0.000
 -0.019   0.000  10.120   0.005  -0.000   7.363  -0.000  -0.000
  0.000   0.000   0.000  -0.000  -0.000  -0.000  -5.080  -0.000
  0.000   0.000   0.000  -0.000  -0.000  -0.000  -0.000  -5.093
 -0.000   0.000  -0.000   0.000  -0.000   0.000  -0.082   0.000
  0.000   0.000   0.000  -0.000  -0.000  -0.000  -0.000  -0.049
 -0.000  -0.000   0.000   0.000   0.000  -0.000   0.000   0.000
  0.000   0.000   0.000  -0.000  -0.000  -0.000  -5.044  -0.000
  0.000   0.000   0.000  -0.000  -0.000  -0.000  -0.000  -5.058
 -0.000   0.000  -0.000   0.000  -0.000   0.000  -0.092   0.000
  0.000   0.000   0.000  -0.000  -0.000  -0.000  -0.000  -0.055
 -0.000  -0.000   0.000   0.000   0.000  -0.000   0.000   0.000
 -0.000  -0.000  -0.000  -0.000  -0.000  -0.000  -0.012   0.000
 -0.000  -0.000  -0.000  -0.000  -0.000  -0.000  -0.025   0.000
 pseudopotential strength for first ion, spin component:            2
-40.532  -0.000   0.038  10.139   0.000  -0.022   0.000   0.000
 -0.000 -40.620  -0.000   0.000  10.188   0.000   0.000   0.000
  0.038  -0.000 -40.532  -0.022   0.000  10.139   0.000   0.000
 10.139   0.000  -0.022   7.358  -0.000   0.005  -0.000  -0.000
  0.000  10.188   0.000  -0.000   7.348  -0.000  -0.000  -0.000
 -0.022   0.000  10.139   0.005  -0.000   7.358  -0.000  -0.000
  0.000   0.000   0.000  -0.000  -0.000  -0.000  -5.097  -0.000
  0.000   0.000   0.000  -0.000  -0.000  -0.000  -0.000  -5.125
 -0.000   0.000  -0.000   0.000  -0.000   0.000  -0.082   0.000
  0.000   0.000   0.000  -0.000  -0.000  -0.000  -0.000  -0.040
 -0.000  -0.000   0.000   0.000   0.000  -0.000  -0.000   0.000
  0.000   0.000   0.000  -0.000  -0.000  -0.000  -5.063  -0.000
  0.000   0.000   0.000  -0.000  -0.000  -0.000  -0.000  -5.093
 -0.000   0.000  -0.000   0.000  -0.000   0.000  -0.091   0.000
  0.000   0.000   0.000  -0.000  -0.000  -0.000  -0.000  -0.045
 -0.000  -0.000   0.000   0.000   0.000  -0.000  -0.000   0.000
 -0.000  -0.000  -0.000  -0.000  -0.000  -0.000  -0.014   0.000
 -0.000  -0.000  -0.000  -0.000  -0.000  -0.000  -0.029   0.000
 total augmentation occupancy for first ion, spin component:            1
  1.995   0.000   0.000  -0.035  -0.000   0.001   0.000   0.000   0.000   0.000   0.000   0.000   0.000   0.000   0.000   0.000
  0.000   1.995   0.000  -0.000  -0.036  -0.000   0.000   0.000   0.000   0.000   0.000   0.000   0.000   0.000   0.000   0.000
  0.000   0.000   1.995   0.001  -0.000  -0.035   0.000   0.000   0.000   0.000   0.000   0.000   0.000   0.000   0.000   0.000
 -0.035  -0.000   0.001   0.173   0.000  -0.019   0.000   0.000   0.000   0.000   0.000   0.000   0.000   0.000   0.000   0.000
 -0.000  -0.036  -0.000   0.000   0.203   0.000   0.000   0.000   0.000   0.000   0.000   0.000   0.000   0.000   0.000   0.000
  0.001  -0.000  -0.035  -0.019   0.000   0.173   0.000   0.000   0.000   0.000   0.000   0.000   0.000   0.000   0.000   0.000
  0.000   0.000   0.000   0.000   0.000   0.000   3.968   0.000   1.495   0.000   0.000  -1.953  -0.000  -1.207  -0.000  -0.000
  0.000   0.000   0.000   0.000   0.000   0.000   0.000   3.508   0.000   1.268  -0.000  -0.000  -1.653  -0.000  -0.995   0.000
  0.000   0.000   0.000   0.000   0.000   0.000   1.495   0.000   3.290   0.000   0.000  -1.180  -0.000  -1.443  -0.000  -0.000
  0.000   0.000   0.000   0.000   0.000   0.000   0.000   1.268   0.000   3.508   0.000  -0.000  -0.995  -0.000  -1.653  -0.000
  0.000   0.000   0.000   0.000   0.000   0.000   0.000  -0.000   0.000   0.000   2.104  -0.000   0.000  -0.000  -0.000  -0.592
  0.000   0.000   0.000   0.000   0.000   0.000  -1.953  -0.000  -1.180  -0.000  -0.000   1.469   0.000   0.592   0.000   0.000
  0.000   0.000   0.000   0.000   0.000   0.000  -0.000  -1.653  -0.000  -0.995   0.000   0.000   1.432   0.000   0.422  -0.000
  0.000   0.000   0.000   0.000   0.000   0.000  -1.207  -0.000  -1.443  -0.000  -0.000   0.592   0.000   1.359   0.000   0.000
  0.000   0.000   0.000   0.000   0.000   0.000  -0.000  -0.995  -0.000  -1.653  -0.000   0.000   0.422   0.000   1.432   0.000
  0.000   0.000   0.000   0.000   0.000   0.000  -0.000   0.000  -0.000  -0.000  -0.592   0.000  -0.000   0.000   0.000   1.035
  0.000   0.000   0.000   0.000   0.000   0.000  -0.207  -0.000   0.218  -0.000  -0.000   0.256   0.000  -0.298   0.000   0.000
  0.000   0.000   0.000   0.000   0.000   0.000   0.022   0.000  -0.013   0.000   0.000  -0.033  -0.000   0.037  -0.000  -0.000
 total augmentation occupancy for first ion, spin component:            2
 -0.000   0.000   0.000   0.000   0.000   0.000   0.000   0.000   0.000   0.000   0.000   0.000   0.000   0.000   0.000   0.000
  0.000   0.000   0.000   0.000   0.000   0.000   0.000   0.000   0.000   0.000   0.000   0.000   0.000   0.000   0.000   0.000
  0.000   0.000  -0.000   0.000   0.000   0.000   0.000   0.000   0.000   0.000   0.000   0.000   0.000   0.000   0.000   0.000
  0.000   0.000   0.000   0.000   0.000  -0.000   0.000   0.000   0.000   0.000   0.000   0.000   0.000   0.000   0.000   0.000
  0.000   0.000   0.000   0.000   0.000   0.000   0.000   0.000   0.000   0.000   0.000   0.000   0.000   0.000   0.000   0.000
  0.000   0.000   0.000  -0.000   0.000   0.000   0.000   0.000   0.000   0.000   0.000   0.000   0.000   0.000   0.000   0.000
  0.000   0.000   0.000   0.000   0.000   0.000   0.008   0.000   0.002   0.000   0.000  -0.005  -0.000  -0.002  -0.000  -0.000
  0.000   0.000   0.000   0.000   0.000   0.000   0.000   0.007   0.000   0.003  -0.000  -0.000   0.005  -0.000  -0.011  -0.000
  0.000   0.000   0.000   0.000   0.000   0.000   0.002   0.000   0.007   0.000   0.000  -0.002  -0.000  -0.004  -0.000  -0.000
  0.000   0.000   0.000   0.000   0.000   0.000   0.000   0.003   0.000   0.007   0.000  -0.000  -0.011  -0.000   0.005   0.000
  0.000   0.000   0.000   0.000   0.000   0.000   0.000  -0.000   0.000   0.000   0.005  -0.000  -0.000  -0.000   0.000   0.021
  0.000   0.000   0.000   0.000   0.000   0.000  -0.005  -0.000  -0.002  -0.000  -0.000   0.002   0.000   0.002   0.000   0.000
  0.000   0.000   0.000   0.000   0.000   0.000  -0.000   0.005  -0.000  -0.011  -0.000   0.000  -0.030   0.000   0.031   0.000
  0.000   0.000   0.000   0.000   0.000   0.000  -0.002  -0.000  -0.004  -0.000  -0.000   0.002   0.000   0.001   0.000   0.000
  0.000   0.000   0.000   0.000   0.000   0.000  -0.000  -0.011  -0.000   0.005   0.000   0.000   0.031   0.000  -0.030  -0.000
  0.000   0.000   0.000   0.000   0.000   0.000  -0.000  -0.000  -0.000   0.000   0.021   0.000   0.000   0.000  -0.000  -0.082
  0.000   0.000   0.000   0.000   0.000   0.000  -0.003  -0.000  -0.003  -0.000  -0.000   0.002   0.000   0.000   0.000   0.000
  0.000   0.000   0.000   0.000   0.000   0.000   0.002   0.000   0.002   0.000   0.000  -0.001  -0.000  -0.000  -0.000  -0.000


------------------------ aborting loop because EDIFF is reached ----------------------------------------





 total charge

# of ion       s       p       d       tot
------------------------------------------
    1        0.334   6.323   7.657  14.314
    2        0.334   6.323   7.657  14.314
    3        1.577   3.374   0.000   4.951
    4        1.577   3.374   0.000   4.951
    5        1.577   3.374   0.000   4.951
    6        1.577   3.374   0.000   4.951
--------------------------------------------------
tot          6.974  26.143  15.313  48.430



 magnetization (x)

# of ion       s       p       d       tot
------------------------------------------
    1        0.000   0.001  -0.067  -0.066
    2        0.000   0.001  -0.067  -0.066
    3       -0.001  -0.041   0.000  -0.042
    4       -0.001  -0.041   0.000  -0.042
    5       -0.001  -0.041   0.000  -0.042
    6       -0.001  -0.041   0.000  -0.042
--------------------------------------------------
tot         -0.002  -0.163  -0.134  -0.299
 
    CHARGE:  cpu time      0.3092: real time      0.3092
    FORLOC:  cpu time      0.0015: real time      0.0015
    FORNL :  cpu time      0.5984: real time      0.5985
    FORCOR:  cpu time      0.6282: real time      0.6283
    FORHAR:  cpu time      0.0056: real time      0.0056
    MIXING:  cpu time      0.0016: real time      0.0016
    OFIELD:  cpu time      0.0000: real time      0.0000

 ---------------------------------------------------------------------------------------------

         DFTD3 V3.0 Rev 1        
 DF pbe       
 parameters
 k1-k3        =   16.0000    1.3333   -4.0000
 Edisp (eV)   -1.41402

 E6    (eV) :    -0.8848
 E8    (eV) :    -0.5293
 % E8        : 37.43
    FORVDW:  cpu time      0.0121: real time      0.0121

 VOLUME and BASIS-vectors are now :
 -----------------------------------------------------------------------------
  energy-cutoff  :      500.00
  volume of cell :       64.34
      direct lattice vectors                 reciprocal lattice vectors
     4.522230460  0.000000000  0.000000000     0.221129818 -0.000000000  0.000000000
     0.000000000  4.522230460  0.000000000     0.000000000  0.221129818  0.000000000
     0.000000000  0.000000000  3.146273630    -0.000000000 -0.000000000  0.317836310

  length of vectors
     4.522230460  4.522230460  3.146273630     0.221129818  0.221129818  0.317836310


 FORCES acting on ions
    electron-ion (+dipol)            ewald-force                    non-local-force                 convergence-correction
 -----------------------------------------------------------------------------------------------
   0.207E-11 0.724E-11 0.681E-11   0.284E-13 0.000E+00 0.158E-13   -.336E-24 0.000E+00 0.000E+00   0.323E-13 0.463E-13 -.131E-13
   0.816E-14 0.148E-13 -.127E-11   0.284E-13 0.114E-12 -.100E-13   -.410E-24 0.000E+00 0.000E+00   0.666E-13 0.146E-12 -.266E-13
   0.374E+02 -.374E+02 0.611E-11   -.386E+02 0.386E+02 0.163E-13   0.119E+01 -.119E+01 -.416E-16   0.377E-04 -.377E-04 -.114E-13
   -.374E+02 0.374E+02 0.488E-12   0.386E+02 -.386E+02 -.574E-14   -.119E+01 0.119E+01 0.416E-16   -.377E-04 0.377E-04 0.665E-14
   0.374E+02 0.374E+02 -.108E-07   -.386E+02 -.386E+02 0.191E-12   0.119E+01 0.119E+01 0.111E-15   0.377E-04 0.377E-04 -.216E-11
   -.374E+02 -.374E+02 0.108E-07   0.386E+02 0.386E+02 -.209E-12   -.119E+01 -.119E+01 -.111E-15   -.377E-04 -.377E-04 0.216E-11
 -----------------------------------------------------------------------------------------------
   -.467E-12 0.106E-10 0.212E-11   -.711E-14 0.355E-13 -.172E-14   0.000E+00 0.444E-15 0.000E+00   0.843E-13 0.157E-12 -.374E-13
 
 
 POSITION                                       TOTAL-FORCE (eV/Angst)
 -----------------------------------------------------------------------------------
      2.26112      2.26112      1.57314        -0.000000      0.000000      0.000000
      0.00000      0.00000      0.00000        -0.000000      0.000000      0.000000
      3.65465      0.86758      1.57314        -0.070469      0.070469     -0.000000
      0.86758      3.65465      1.57314         0.070469     -0.070469      0.000000
      1.39353      1.39353      0.00000        -0.070469     -0.070469     -0.000000
      3.12870      3.12870      0.00000         0.070469      0.070469      0.000000
 -----------------------------------------------------------------------------------
    total drift:                               -0.000000      0.000000      0.000000


--------------------------------------------------------------------------------------------------------



  FREE ENERGIE OF THE ION-ELECTRON SYSTEM (eV)
  ---------------------------------------------------
  free  energy   TOTEN  =       -33.52466490 eV

  energy  without entropy=      -33.51963831  energy(sigma->0) =      -33.52215161
 


--------------------------------------------------------------------------------------------------------


    POTLOK:  cpu time      0.6296: real time      0.6296


--------------------------------------------------------------------------------------------------------


     LOOP+:  cpu time     61.0473: real time     61.1928
    4ORBIT:  cpu time      0.0000: real time      0.0000



 total charge

# of ion       s       p       d       tot
------------------------------------------
    1        0.334   6.323   7.657  14.314
    2        0.334   6.323   7.657  14.314
    3        1.577   3.374   0.000   4.951
    4        1.577   3.374   0.000   4.951
    5        1.577   3.374   0.000   4.951
    6        1.577   3.374   0.000   4.951
--------------------------------------------------
tot          6.974  26.143  15.313  48.430



 magnetization (x)

# of ion       s       p       d       tot
------------------------------------------
    1        0.000   0.001  -0.067  -0.066
    2        0.000   0.001  -0.067  -0.066
    3       -0.001  -0.041   0.000  -0.042
    4       -0.001  -0.041   0.000  -0.042
    5       -0.001  -0.041   0.000  -0.042
    6       -0.001  -0.041   0.000  -0.042
--------------------------------------------------
tot         -0.002  -0.163  -0.134  -0.299
 

 total amount of memory used by VASP MPI-rank0    96201. kBytes
=======================================================================

   base      :      30000. kBytes
   nonl-proj :      24063. kBytes
   fftplans  :       9397. kBytes
   grid      :       7672. kBytes
   one-center:        186. kBytes
   wavefun   :      24883. kBytes
 
  
  
 General timing and accounting informations for this job:
 ========================================================
  
                  Total CPU time used (sec):       62.727
                            User time (sec):       60.943
                          System time (sec):        1.784
                         Elapsed time (sec):       63.430
  
                   Maximum memory used (kb):      381468.
                   Average memory used (kb):          N/A
  
                          Minor page faults:       353791
                          Major page faults:            1
                 Voluntary context switches:          393
