106
Lattice="12.21437083684855 0.0 7e-16 1.7e-15 10.811692246786171 7e-16 0.0 0.0 29.250333490173453" Properties=species:S:1:pos:R:3:move_mask:L:1:momenta:R:3 adsorbate_info="_JSON {\"site\": {\"coordinates\": [5.34378762071529, 6.757316476677577, 9.944973584365405], \"connectivity\": 2, \"topology\": [74, 93], \"n_vector\": [-0.12799695084630422, -0.4883960856930978, 0.863183667624515], \"h_vector\": [-0.43340326819036673, -0.7672615586696175, -0.4727275195181447], \"site_formula\": {\"Pd\": 2}}, \"smiles\": \"Cl[C]=O\", \"mdf\": 2.3351002134396195, \"adsorbate_formula\": \"CO\"}" mace_E=-547.4445613901805 converged=T n_steps=34 d_min=1.963723608287605 site_type=unknown dE_rel_meV=0 original_idx=37 rank=5 E_MACE=-547.6273175264437 pbc="T T T"
O        6.11172451       1.33233894       9.17885558  T       0.00000000       0.00000000       0.00000000
O        9.16077813       4.05438459       3.02679635  F       0.00000000       0.00000000       0.00000000
O        6.11002607       6.74577054       9.15312695  T       0.00000000       0.00000000       0.00000000
O        6.12072357       9.44877623       9.16875597  T       0.00000000       0.00000000       0.00000000
O        9.16241138       4.05917771       9.20199221  T       0.00000000       0.00000000       0.00000000
O        3.05616044       1.33773625       9.18890858  T       0.00000000       0.00000000       0.00000000
O        0.00000000       6.75730765       3.02679635  F       0.00000000       0.00000000       0.00000000
O        3.05602262       4.06264171       9.19450361  T       0.00000000       0.00000000       0.00000000
O        0.00000378       9.45637311       6.10263459  F       0.00000000       0.00000000       0.00000000
O        0.00000210       6.76116167       6.10263319  F       0.00000000       0.00000000       0.00000000
O       12.21791629       9.46470945       9.19957191  T       0.00000000       0.00000000       0.00000000
O       12.21474163       1.34210241       9.19572803  T       0.00000000       0.00000000       0.00000000
O       12.21495694       4.06176805       9.19536918  T       0.00000000       0.00000000       0.00000000
O        0.00000083       1.35531789       6.10263389  F       0.00000000       0.00000000       0.00000000
O        0.00000111       4.05052849       6.10263306  F       0.00000000       0.00000000       0.00000000
O        3.05359271       4.05438459       3.02679635  F       0.00000000       0.00000000       0.00000000
O        0.00000000       9.46023072       3.02679635  F       0.00000000       0.00000000       0.00000000
O        3.05359462       4.05052721       6.10264107  F       0.00000000       0.00000000       0.00000000
O        3.05359271       1.35146153       3.02679635  F       0.00000000       0.00000000       0.00000000
O        3.05359530       1.35531781       6.10264061  F       0.00000000       0.00000000       0.00000000
O        0.00000000       4.05438459       3.02679635  F       0.00000000       0.00000000       0.00000000
O        0.00000000       1.35146153       3.02679635  F       0.00000000       0.00000000       0.00000000
O        9.16077813       1.35146153       3.02679635  F       0.00000000       0.00000000       0.00000000
O        9.16077827       4.05052947       6.10263005  F       0.00000000       0.00000000       0.00000000
O        0.00356489       6.74712991       9.19526431  T       0.00000000       0.00000000       0.00000000
O        9.16554062       1.34174484       9.20007758  T       0.00000000       0.00000000       0.00000000
O        9.16077740       1.35531546       6.10263307  F       0.00000000       0.00000000       0.00000000
O        6.10805135       4.06332051       9.18677518  T       0.00000000       0.00000000       0.00000000
O        6.10718702       1.35531501       6.10263790  F       0.00000000       0.00000000       0.00000000
O        6.10718706       4.05052983       6.10263604  F       0.00000000       0.00000000       0.00000000
O        6.10718542       1.35146153       3.02679635  F       0.00000000       0.00000000       0.00000000
O        6.10718542       4.05438459       3.02679635  F       0.00000000       0.00000000       0.00000000
O        3.04567734       9.46493517       9.19203422  T       0.00000000       0.00000000       0.00000000
O        3.05359386       6.76116323       6.10263934  F       0.00000000       0.00000000       0.00000000
O        3.05359337       9.45637518       6.10263943  F       0.00000000       0.00000000       0.00000000
O        3.05359271       6.75730765       3.02679635  F       0.00000000       0.00000000       0.00000000
O        3.05301662       6.75024416       9.19272877  T       0.00000000       0.00000000       0.00000000
O        6.10718542       9.46023072       3.02679635  F       0.00000000       0.00000000       0.00000000
O        6.10718542       6.75730765       3.02679635  F       0.00000000       0.00000000       0.00000000
O        6.10718315       9.45637324       6.10264060  F       0.00000000       0.00000000       0.00000000
O        6.10718523       6.76116316       6.10264025  F       0.00000000       0.00000000       0.00000000
O        9.15623632       6.74861682       9.19776139  T       0.00000000       0.00000000       0.00000000
O        9.16468151       9.46225341       9.20513636  T       0.00000000       0.00000000       0.00000000
O        9.16078028       6.76116138       6.10263509  F       0.00000000       0.00000000       0.00000000
O        9.16078018       9.45637411       6.10263910  F       0.00000000       0.00000000       0.00000000
O        9.16077813       6.75730765       3.02679635  F       0.00000000       0.00000000       0.00000000
O        3.05359271       9.46023072       3.02679635  F       0.00000000       0.00000000       0.00000000
O        9.16077813       9.46023072       3.02679635  F       0.00000000       0.00000000       0.00000000
Pd       3.05359414       2.70292461       4.56516084  F       0.00000000       0.00000000       0.00000000
Pd       6.10718542       2.70292306       1.50000000  F       0.00000000       0.00000000       0.00000000
Pd       3.05359287       8.10876720       4.56515841  F       0.00000000       0.00000000       0.00000000
Pd       3.07393389       2.69421787      10.82641104  T       0.00000000       0.00000000       0.00000000
Pd       3.05214584       2.70345301       7.66249793  T       0.00000000       0.00000000       0.00000000
Pd       3.05359271       2.70292306       1.50000000  F       0.00000000       0.00000000       0.00000000
Pd       4.58038906       5.40584612       3.02679635  F       0.00000000       0.00000000       0.00000000
Pd       4.58038878       0.00000011       6.09434618  F       0.00000000       0.00000000       0.00000000
Pd       4.58038808       5.40584530       6.09434913  F       0.00000000       0.00000000       0.00000000
Pd       7.63398177       0.00000000       3.02679635  F       0.00000000       0.00000000       0.00000000
Pd       3.05359271       8.10876919       1.50000000  F       0.00000000       0.00000000       0.00000000
Pd       6.11741238       8.09557136       7.65588484  T       0.00000000       0.00000000       0.00000000
Pd       7.63398372      10.81169054       6.09434173  F       0.00000000       0.00000000       0.00000000
Pd       6.10718498       8.10876457       4.56515665  F       0.00000000       0.00000000       0.00000000
Pd       1.52679863       5.40584339       6.09434623  F       0.00000000       0.00000000       0.00000000
Pd       7.63398177       5.40584612       3.02679635  F       0.00000000       0.00000000       0.00000000
Pd       6.10718542       8.10876919       1.50000000  F       0.00000000       0.00000000       0.00000000
Pd       0.00180009       8.10765161       7.66374222  T       0.00000000       0.00000000       0.00000000
Pd       6.10082448       2.68751953      10.81544821  T       0.00000000       0.00000000       0.00000000
Pd       1.53034199       5.40412433       9.15000575  T       0.00000000       0.00000000       0.00000000
Pd       7.64293312      -0.00312421       9.14995681  T       0.00000000       0.00000000       0.00000000
Pd       6.11024736       2.70247582       7.65938480  T       0.00000000       0.00000000       0.00000000
Pd      12.27866053       8.10487495      10.82805216  T       0.00000000       0.00000000       0.00000000
Pd       6.10718636       2.70292272       4.56515365  F       0.00000000       0.00000000       0.00000000
Pd       3.04662047       8.10608430       7.66699615  T       0.00000000       0.00000000       0.00000000
Pd       0.00000286       8.10876728       4.56515590  F       0.00000000       0.00000000       0.00000000
Pd       4.58505156       5.40838339       9.13007860  T       0.00000000       0.00000000       0.00000000
Pd       9.16077813       2.70292306       1.50000000  F       0.00000000       0.00000000       0.00000000
Pd       2.98489139       8.12891394      10.88534233  T       0.00000000       0.00000000       0.00000000
Pd       0.00000000       8.10876919       1.50000000  F       0.00000000       0.00000000       0.00000000
Pd       9.09595251       8.10533075      10.82677333  T       0.00000000       0.00000000       0.00000000
Pd       1.52679635       0.00000000       3.02679635  F       0.00000000       0.00000000       0.00000000
Pd       1.52679635       5.40584612       3.02679635  F       0.00000000       0.00000000       0.00000000
Pd      10.68757448       0.00000000       3.02679635  F       0.00000000       0.00000000       0.00000000
Pd      10.68710561       5.40670883       9.16408784  T       0.00000000       0.00000000       0.00000000
Pd       9.16077751       2.70292195       4.56515514  F       0.00000000       0.00000000       0.00000000
Pd      10.68757769      10.81169125       6.09434037  F       0.00000000       0.00000000       0.00000000
Pd       9.16077986       8.10876364       4.56515811  F       0.00000000       0.00000000       0.00000000
Pd       1.52679695      10.81169175       6.09434358  F       0.00000000       0.00000000       0.00000000
Pd       9.16531488       8.10743098       7.66281503  T       0.00000000       0.00000000       0.00000000
Pd       9.16391459       2.70312547       7.66618712  T       0.00000000       0.00000000       0.00000000
Pd      10.69055927      -0.00487342       9.16979138  T       0.00000000       0.00000000       0.00000000
Pd       0.00000037       2.70292295       4.56515782  F       0.00000000       0.00000000       0.00000000
Pd       1.52649750      10.81078269       9.15225454  T       0.00000000       0.00000000       0.00000000
Pd       9.15631129       2.69503370      10.83690483  T       0.00000000       0.00000000       0.00000000
Pd       5.77177242       8.32938591      10.90869086  T       0.00000000       0.00000000       0.00000000
Pd      12.21315439       2.70252792       7.66287905  T       0.00000000       0.00000000       0.00000000
Pd      10.68757879       5.40584476       6.09434230  F       0.00000000       0.00000000       0.00000000
Pd       9.16077813       8.10876919       1.50000000  F       0.00000000       0.00000000       0.00000000
Pd      10.68757448       5.40584612       3.02679635  F       0.00000000       0.00000000       0.00000000
Pd      12.21645066       2.69775360      10.82858443  T       0.00000000       0.00000000       0.00000000
Pd       4.58098596      10.80815666       9.13789677  T       0.00000000       0.00000000       0.00000000
Pd       7.63398212       5.40584800       6.09434442  F       0.00000000       0.00000000       0.00000000
Pd       7.63173467       5.40584585       9.14045286  T       0.00000000       0.00000000       0.00000000
Pd       4.58038906       0.00000000       3.02679635  F       0.00000000       0.00000000       0.00000000
Pd       0.00000000       2.70292306       1.50000000  F       0.00000000       0.00000000       0.00000000
C        5.16778057       7.66937600      12.48448832  T       0.00000000       0.00000000       0.00000000
O        4.78017354       7.23502565      13.50011250  T       0.00000000       0.00000000       0.00000000
