106
Lattice="12.21437083684855 0.0 7e-16 1.7e-15 10.811692246786171 7e-16 0.0 0.0 29.250333490173453" Properties=species:S:1:pos:R:3:move_mask:L:1:momenta:R:3 adsorbate_info="_JSON {\"site\": {\"coordinates\": [9.669715272442257, 8.456667297080873e-06, 10.222519293198713], \"connectivity\": 3, \"topology\": [78, 89, 92], \"n_vector\": [0.034313090630349125, 0.008275800307516862, 0.9993768673231652], \"h_vector\": [0.4333998855794997, -0.7672632433928992, -0.4727278863340783], \"site_formula\": {\"Pd\": 3}}, \"smiles\": \"Cl[C]=O\", \"mdf\": 1.9988578731375353, \"adsorbate_formula\": \"CO\"}" mace_E=-547.4453673320099 converged=T n_steps=34 d_min=1.8053541636975852 site_type=unknown dE_rel_meV=0 original_idx=66 rank=43 E_MACE=-547.4947726000302 pbc="T T T"
O        6.10862158       1.34777181       9.18624084  T       0.00000000       0.00000000       0.00000000
O        9.16077813       4.05438459       3.02679635  F       0.00000000       0.00000000       0.00000000
O        6.12010546       6.74624764       9.18991776  T       0.00000000       0.00000000       0.00000000
O        6.11513045       9.47411193       9.18948615  T       0.00000000       0.00000000       0.00000000
O        9.17988385       4.04699679       9.18429421  T       0.00000000       0.00000000       0.00000000
O        3.06024660       1.34499664       9.19311512  T       0.00000000       0.00000000       0.00000000
O        0.00000000       6.75730765       3.02679635  F       0.00000000       0.00000000       0.00000000
O        3.06243319       4.06417062       9.19306717  T       0.00000000       0.00000000       0.00000000
O        0.00000378       9.45637311       6.10263459  F       0.00000000       0.00000000       0.00000000
O        0.00000210       6.76116167       6.10263319  F       0.00000000       0.00000000       0.00000000
O       12.21996841       9.46943891       9.19599527  T       0.00000000       0.00000000       0.00000000
O       12.21714968       1.34800349       9.19884379  T       0.00000000       0.00000000       0.00000000
O       12.22084233       4.06022922       9.19940147  T       0.00000000       0.00000000       0.00000000
O        0.00000083       1.35531789       6.10263389  F       0.00000000       0.00000000       0.00000000
O        0.00000111       4.05052849       6.10263306  F       0.00000000       0.00000000       0.00000000
O        3.05359271       4.05438459       3.02679635  F       0.00000000       0.00000000       0.00000000
O        0.00000000       9.46023072       3.02679635  F       0.00000000       0.00000000       0.00000000
O        3.05359462       4.05052721       6.10264107  F       0.00000000       0.00000000       0.00000000
O        3.05359271       1.35146153       3.02679635  F       0.00000000       0.00000000       0.00000000
O        3.05359530       1.35531781       6.10264061  F       0.00000000       0.00000000       0.00000000
O        0.00000000       4.05438459       3.02679635  F       0.00000000       0.00000000       0.00000000
O        0.00000000       1.35146153       3.02679635  F       0.00000000       0.00000000       0.00000000
O        9.16077813       1.35146153       3.02679635  F       0.00000000       0.00000000       0.00000000
O        9.16077827       4.05052947       6.10263005  F       0.00000000       0.00000000       0.00000000
O        0.00603794       6.74988226       9.19533109  T       0.00000000       0.00000000       0.00000000
O        9.17183889       1.33657053       9.13978670  T       0.00000000       0.00000000       0.00000000
O        9.16077740       1.35531546       6.10263307  F       0.00000000       0.00000000       0.00000000
O        6.10503741       4.06417740       9.18552849  T       0.00000000       0.00000000       0.00000000
O        6.10718702       1.35531501       6.10263790  F       0.00000000       0.00000000       0.00000000
O        6.10718706       4.05052983       6.10263604  F       0.00000000       0.00000000       0.00000000
O        6.10718542       1.35146153       3.02679635  F       0.00000000       0.00000000       0.00000000
O        6.10718542       4.05438459       3.02679635  F       0.00000000       0.00000000       0.00000000
O        3.05805021       9.47027024       9.19553665  T       0.00000000       0.00000000       0.00000000
O        3.05359386       6.76116323       6.10263934  F       0.00000000       0.00000000       0.00000000
O        3.05359337       9.45637518       6.10263943  F       0.00000000       0.00000000       0.00000000
O        3.05359271       6.75730765       3.02679635  F       0.00000000       0.00000000       0.00000000
O        3.05746228       6.75118032       9.19146543  T       0.00000000       0.00000000       0.00000000
O        6.10718542       9.46023072       3.02679635  F       0.00000000       0.00000000       0.00000000
O        6.10718542       6.75730765       3.02679635  F       0.00000000       0.00000000       0.00000000
O        6.10718315       9.45637324       6.10264060  F       0.00000000       0.00000000       0.00000000
O        6.10718523       6.76116316       6.10264025  F       0.00000000       0.00000000       0.00000000
O        9.17282390       6.74270304       9.18689717  T       0.00000000       0.00000000       0.00000000
O        9.16550158       9.47324681       9.17900656  T       0.00000000       0.00000000       0.00000000
O        9.16078028       6.76116138       6.10263509  F       0.00000000       0.00000000       0.00000000
O        9.16078018       9.45637411       6.10263910  F       0.00000000       0.00000000       0.00000000
O        9.16077813       6.75730765       3.02679635  F       0.00000000       0.00000000       0.00000000
O        3.05359271       9.46023072       3.02679635  F       0.00000000       0.00000000       0.00000000
O        9.16077813       9.46023072       3.02679635  F       0.00000000       0.00000000       0.00000000
Pd       3.05359414       2.70292461       4.56516084  F       0.00000000       0.00000000       0.00000000
Pd       6.10718542       2.70292306       1.50000000  F       0.00000000       0.00000000       0.00000000
Pd       3.05359287       8.10876720       4.56515841  F       0.00000000       0.00000000       0.00000000
Pd       3.12825420       2.70084084      10.82400678  T       0.00000000       0.00000000       0.00000000
Pd       3.05673655       2.70365304       7.66105459  T       0.00000000       0.00000000       0.00000000
Pd       3.05359271       2.70292306       1.50000000  F       0.00000000       0.00000000       0.00000000
Pd       4.58038906       5.40584612       3.02679635  F       0.00000000       0.00000000       0.00000000
Pd       4.58038878       0.00000011       6.09434618  F       0.00000000       0.00000000       0.00000000
Pd       4.58038808       5.40584530       6.09434913  F       0.00000000       0.00000000       0.00000000
Pd       7.63398177       0.00000000       3.02679635  F       0.00000000       0.00000000       0.00000000
Pd       3.05359271       8.10876919       1.50000000  F       0.00000000       0.00000000       0.00000000
Pd       6.11141560       8.11001124       7.66134285  T       0.00000000       0.00000000       0.00000000
Pd       7.63398372      10.81169054       6.09434173  F       0.00000000       0.00000000       0.00000000
Pd       6.10718498       8.10876457       4.56515665  F       0.00000000       0.00000000       0.00000000
Pd       1.52679863       5.40584339       6.09434623  F       0.00000000       0.00000000       0.00000000
Pd       7.63398177       5.40584612       3.02679635  F       0.00000000       0.00000000       0.00000000
Pd       6.10718542       8.10876919       1.50000000  F       0.00000000       0.00000000       0.00000000
Pd       0.00427039       8.10953027       7.66333932  T       0.00000000       0.00000000       0.00000000
Pd       6.03778991       2.73018858      10.88013575  T       0.00000000       0.00000000       0.00000000
Pd       1.53328122       5.40382045       9.16192775  T       0.00000000       0.00000000       0.00000000
Pd       7.64198282       0.00643547       9.11851909  T       0.00000000       0.00000000       0.00000000
Pd       6.10324886       2.70244975       7.66327483  T       0.00000000       0.00000000       0.00000000
Pd      12.21485612       8.10669134      10.83259557  T       0.00000000       0.00000000       0.00000000
Pd       6.10718636       2.70292272       4.56515365  F       0.00000000       0.00000000       0.00000000
Pd       3.05347148       8.11092327       7.66145544  T       0.00000000       0.00000000       0.00000000
Pd       0.00000286       8.10876728       4.56515590  F       0.00000000       0.00000000       0.00000000
Pd       4.58663276       5.41071474       9.14722950  T       0.00000000       0.00000000       0.00000000
Pd       9.16077813       2.70292306       1.50000000  F       0.00000000       0.00000000       0.00000000
Pd       3.05998446       8.11107706      10.82900789  T       0.00000000       0.00000000       0.00000000
Pd       0.00000000       8.10876919       1.50000000  F       0.00000000       0.00000000       0.00000000
Pd       9.15775223       8.10014598      10.81943196  T       0.00000000       0.00000000       0.00000000
Pd       1.52679635       0.00000000       3.02679635  F       0.00000000       0.00000000       0.00000000
Pd       1.52679635       5.40584612       3.02679635  F       0.00000000       0.00000000       0.00000000
Pd      10.68757448       0.00000000       3.02679635  F       0.00000000       0.00000000       0.00000000
Pd      10.70050427       5.40695446       9.14993497  T       0.00000000       0.00000000       0.00000000
Pd       9.16077751       2.70292195       4.56515514  F       0.00000000       0.00000000       0.00000000
Pd      10.68757769      10.81169125       6.09434037  F       0.00000000       0.00000000       0.00000000
Pd       9.16077986       8.10876364       4.56515811  F       0.00000000       0.00000000       0.00000000
Pd       1.52679695      10.81169175       6.09434358  F       0.00000000       0.00000000       0.00000000
Pd       9.16484064       8.10717120       7.65924960  T       0.00000000       0.00000000       0.00000000
Pd       9.17662764       2.69141843       7.65459064  T       0.00000000       0.00000000       0.00000000
Pd      10.69192698       0.00444390       9.13061671  T       0.00000000       0.00000000       0.00000000
Pd       0.00000037       2.70292295       4.56515782  F       0.00000000       0.00000000       0.00000000
Pd       1.53087732      10.81574656       9.16094233  T       0.00000000       0.00000000       0.00000000
Pd       8.82908825       2.87675309      10.88999063  T       0.00000000       0.00000000       0.00000000
Pd       6.13864240       8.10536402      10.82413102  T       0.00000000       0.00000000       0.00000000
Pd      12.22103511       2.70321135       7.66080285  T       0.00000000       0.00000000       0.00000000
Pd      10.68757879       5.40584476       6.09434230  F       0.00000000       0.00000000       0.00000000
Pd       9.16077813       8.10876919       1.50000000  F       0.00000000       0.00000000       0.00000000
Pd      10.68757448       5.40584612       3.02679635  F       0.00000000       0.00000000       0.00000000
Pd      12.15383325       2.71044061      10.82369724  T       0.00000000       0.00000000       0.00000000
Pd       4.58740294      10.81274000       9.14858409  T       0.00000000       0.00000000       0.00000000
Pd       7.63398212       5.40584800       6.09434442  F       0.00000000       0.00000000       0.00000000
Pd       7.64272553       5.40487381       9.14038162  T       0.00000000       0.00000000       0.00000000
Pd       4.58038906       0.00000000       3.02679635  F       0.00000000       0.00000000       0.00000000
Pd       0.00000000       2.70292306       1.50000000  F       0.00000000       0.00000000       0.00000000
C        8.22699244       1.97798008      12.34816512  T       0.00000000       0.00000000       0.00000000
O        7.86341726       1.30039083      13.23070521  T       0.00000000       0.00000000       0.00000000
