106
Lattice="12.21437083684855 0.0 7e-16 1.7e-15 10.811692246786171 7e-16 0.0 0.0 29.250333490173453" Properties=species:S:1:pos:R:3:move_mask:L:1:momenta:R:3 adsorbate_info="_JSON {\"site\": {\"coordinates\": [1.5267967078565754, 5.4058387925620375, 9.112300650018435], \"connectivity\": 1, \"topology\": [67], \"n_vector\": [0.006012480939315497, -0.023648865920326067, 0.999702246278179], \"h_vector\": [1.0, 0.0, 0.0], \"site_formula\": {\"Pd\": 1}}, \"smiles\": \"Cl[C]=O\", \"mdf\": 2.3691939546838454, \"adsorbate_formula\": \"CO\"}" mace_E=-547.4910891544135 converged=T n_steps=67 d_min=1.8054927069381004 site_type=bridge dE_rel_meV=0 original_idx=10 rank=45 E_MACE=-547.4930749588632 pbc="T T T"
O        6.09885143       1.33204118       9.18677022  T       0.00000000       0.00000000       0.00000000
O        9.16077813       4.05438459       3.02679635  F       0.00000000       0.00000000       0.00000000
O        6.09438671       6.73464638       9.18524386  T       0.00000000       0.00000000       0.00000000
O        6.09348291       9.45561729       9.20363761  T       0.00000000       0.00000000       0.00000000
O        9.14919026       4.04713445       9.20162022  T       0.00000000       0.00000000       0.00000000
O        3.03453818       1.32221134       9.17826985  T       0.00000000       0.00000000       0.00000000
O        0.00000000       6.75730765       3.02679635  F       0.00000000       0.00000000       0.00000000
O        3.04040553       4.05010708       9.19741900  T       0.00000000       0.00000000       0.00000000
O        0.00000378       9.45637311       6.10263459  F       0.00000000       0.00000000       0.00000000
O        0.00000210       6.76116167       6.10263319  F       0.00000000       0.00000000       0.00000000
O       12.19921023       9.41512087       9.22614697  T       0.00000000       0.00000000       0.00000000
O       12.19857574       1.30930172       9.18068614  T       0.00000000       0.00000000       0.00000000
O       12.19972495       4.04726455       9.19289278  T       0.00000000       0.00000000       0.00000000
O        0.00000083       1.35531789       6.10263389  F       0.00000000       0.00000000       0.00000000
O        0.00000111       4.05052849       6.10263306  F       0.00000000       0.00000000       0.00000000
O        3.05359271       4.05438459       3.02679635  F       0.00000000       0.00000000       0.00000000
O        0.00000000       9.46023072       3.02679635  F       0.00000000       0.00000000       0.00000000
O        3.05359462       4.05052721       6.10264107  F       0.00000000       0.00000000       0.00000000
O        3.05359271       1.35146153       3.02679635  F       0.00000000       0.00000000       0.00000000
O        3.05359530       1.35531781       6.10264061  F       0.00000000       0.00000000       0.00000000
O        0.00000000       4.05438459       3.02679635  F       0.00000000       0.00000000       0.00000000
O        0.00000000       1.35146153       3.02679635  F       0.00000000       0.00000000       0.00000000
O        9.16077813       1.35146153       3.02679635  F       0.00000000       0.00000000       0.00000000
O        9.16077827       4.05052947       6.10263005  F       0.00000000       0.00000000       0.00000000
O       -0.01477650       6.73040559       9.14591623  T       0.00000000       0.00000000       0.00000000
O        9.15422129       1.32060578       9.17682741  T       0.00000000       0.00000000       0.00000000
O        9.16077740       1.35531546       6.10263307  F       0.00000000       0.00000000       0.00000000
O        6.09346085       4.04848598       9.20356413  T       0.00000000       0.00000000       0.00000000
O        6.10718702       1.35531501       6.10263790  F       0.00000000       0.00000000       0.00000000
O        6.10718706       4.05052983       6.10263604  F       0.00000000       0.00000000       0.00000000
O        6.10718542       1.35146153       3.02679635  F       0.00000000       0.00000000       0.00000000
O        6.10718542       4.05438459       3.02679635  F       0.00000000       0.00000000       0.00000000
O        3.05147903       9.45364952       9.20105303  T       0.00000000       0.00000000       0.00000000
O        3.05359386       6.76116323       6.10263934  F       0.00000000       0.00000000       0.00000000
O        3.05359337       9.45637518       6.10263943  F       0.00000000       0.00000000       0.00000000
O        3.05359271       6.75730765       3.02679635  F       0.00000000       0.00000000       0.00000000
O        3.03542427       6.73464229       9.18576378  T       0.00000000       0.00000000       0.00000000
O        6.10718542       9.46023072       3.02679635  F       0.00000000       0.00000000       0.00000000
O        6.10718542       6.75730765       3.02679635  F       0.00000000       0.00000000       0.00000000
O        6.10718315       9.45637324       6.10264060  F       0.00000000       0.00000000       0.00000000
O        6.10718523       6.76116316       6.10264025  F       0.00000000       0.00000000       0.00000000
O        9.14556887       6.73473460       9.18856455  T       0.00000000       0.00000000       0.00000000
O        9.13876498       9.44779654       9.20136642  T       0.00000000       0.00000000       0.00000000
O        9.16078028       6.76116138       6.10263509  F       0.00000000       0.00000000       0.00000000
O        9.16078018       9.45637411       6.10263910  F       0.00000000       0.00000000       0.00000000
O        9.16077813       6.75730765       3.02679635  F       0.00000000       0.00000000       0.00000000
O        3.05359271       9.46023072       3.02679635  F       0.00000000       0.00000000       0.00000000
O        9.16077813       9.46023072       3.02679635  F       0.00000000       0.00000000       0.00000000
Pd       3.05359414       2.70292461       4.56516084  F       0.00000000       0.00000000       0.00000000
Pd       6.10718542       2.70292306       1.50000000  F       0.00000000       0.00000000       0.00000000
Pd       3.05359287       8.10876720       4.56515841  F       0.00000000       0.00000000       0.00000000
Pd       2.99952018       2.65724566      10.81646724  T       0.00000000       0.00000000       0.00000000
Pd       3.04397582       2.69792060       7.65851295  T       0.00000000       0.00000000       0.00000000
Pd       3.05359271       2.70292306       1.50000000  F       0.00000000       0.00000000       0.00000000
Pd       4.58038906       5.40584612       3.02679635  F       0.00000000       0.00000000       0.00000000
Pd       4.58038878       0.00000011       6.09434618  F       0.00000000       0.00000000       0.00000000
Pd       4.58038808       5.40584530       6.09434913  F       0.00000000       0.00000000       0.00000000
Pd       7.63398177       0.00000000       3.02679635  F       0.00000000       0.00000000       0.00000000
Pd       3.05359271       8.10876919       1.50000000  F       0.00000000       0.00000000       0.00000000
Pd       6.09996614       8.10437678       7.66266383  T       0.00000000       0.00000000       0.00000000
Pd       7.63398372      10.81169054       6.09434173  F       0.00000000       0.00000000       0.00000000
Pd       6.10718498       8.10876457       4.56515665  F       0.00000000       0.00000000       0.00000000
Pd       1.52679863       5.40584339       6.09434623  F       0.00000000       0.00000000       0.00000000
Pd       7.63398177       5.40584612       3.02679635  F       0.00000000       0.00000000       0.00000000
Pd       6.10718542       8.10876919       1.50000000  F       0.00000000       0.00000000       0.00000000
Pd      -0.00769409       8.09491240       7.66561277  T       0.00000000       0.00000000       0.00000000
Pd       6.08414733       2.66368493      10.82851466  T       0.00000000       0.00000000       0.00000000
Pd       1.50972932       5.39411200       9.13410227  T       0.00000000       0.00000000       0.00000000
Pd       7.62160634      -0.01385069       9.15867631  T       0.00000000       0.00000000       0.00000000
Pd       6.10367909       2.70086951       7.66304931  T       0.00000000       0.00000000       0.00000000
Pd      12.24663106       8.21477003      10.95655516  T       0.00000000       0.00000000       0.00000000
Pd       6.10718636       2.70292272       4.56515365  F       0.00000000       0.00000000       0.00000000
Pd       3.05103395       8.10262712       7.66186674  T       0.00000000       0.00000000       0.00000000
Pd       0.00000286       8.10876728       4.56515590  F       0.00000000       0.00000000       0.00000000
Pd       4.56512343       5.39230017       9.15484399  T       0.00000000       0.00000000       0.00000000
Pd       9.16077813       2.70292306       1.50000000  F       0.00000000       0.00000000       0.00000000
Pd       3.03709053       8.09660337      10.83950971  T       0.00000000       0.00000000       0.00000000
Pd       0.00000000       8.10876919       1.50000000  F       0.00000000       0.00000000       0.00000000
Pd       9.12440868       8.09637013      10.83619711  T       0.00000000       0.00000000       0.00000000
Pd       1.52679635       0.00000000       3.02679635  F       0.00000000       0.00000000       0.00000000
Pd       1.52679635       5.40584612       3.02679635  F       0.00000000       0.00000000       0.00000000
Pd      10.68757448       0.00000000       3.02679635  F       0.00000000       0.00000000       0.00000000
Pd      10.67477874       5.39589990       9.13353070  T       0.00000000       0.00000000       0.00000000
Pd       9.16077751       2.70292195       4.56515514  F       0.00000000       0.00000000       0.00000000
Pd      10.68757769      10.81169125       6.09434037  F       0.00000000       0.00000000       0.00000000
Pd       9.16077986       8.10876364       4.56515811  F       0.00000000       0.00000000       0.00000000
Pd       1.52679695      10.81169175       6.09434358  F       0.00000000       0.00000000       0.00000000
Pd       9.14739512       8.10089022       7.66156380  T       0.00000000       0.00000000       0.00000000
Pd       9.15880504       2.69838769       7.65982768  T       0.00000000       0.00000000       0.00000000
Pd      10.67285008      -0.03071834       9.15938857  T       0.00000000       0.00000000       0.00000000
Pd       0.00000037       2.70292295       4.56515782  F       0.00000000       0.00000000       0.00000000
Pd       1.51338775      10.78376714       9.16373435  T       0.00000000       0.00000000       0.00000000
Pd       9.15298134       2.64617559      10.82009532  T       0.00000000       0.00000000       0.00000000
Pd       6.06306093       8.08206640      10.82646756  T       0.00000000       0.00000000       0.00000000
Pd      12.20748297       2.69232772       7.66185338  T       0.00000000       0.00000000       0.00000000
Pd      10.68757879       5.40584476       6.09434230  F       0.00000000       0.00000000       0.00000000
Pd       9.16077813       8.10876919       1.50000000  F       0.00000000       0.00000000       0.00000000
Pd      10.68757448       5.40584612       3.02679635  F       0.00000000       0.00000000       0.00000000
Pd      12.20577855       2.65771509      10.81576025  T       0.00000000       0.00000000       0.00000000
Pd       4.56963211      10.80252055       9.16087490  T       0.00000000       0.00000000       0.00000000
Pd       7.63398212       5.40584800       6.09434442  F       0.00000000       0.00000000       0.00000000
Pd       7.62195881       5.38912062       9.15414584  T       0.00000000       0.00000000       0.00000000
Pd       4.58038906       0.00000000       3.02679635  F       0.00000000       0.00000000       0.00000000
Pd       0.00000000       2.70292306       1.50000000  F       0.00000000       0.00000000       0.00000000
C        0.11840728       7.36415219      12.54609996  T       0.00000000       0.00000000       0.00000000
O        0.19793142       6.74732068      13.53446169  T       0.00000000       0.00000000       0.00000000
