106
Lattice="12.21437083684855 0.0 7e-16 1.7e-15 10.811692246786171 7e-16 0.0 0.0 29.250333490173453" Properties=species:S:1:pos:R:3:move_mask:L:1:momenta:R:3 adsorbate_info="_JSON {\"site\": {\"coordinates\": [6.870588421436947, 9.460239668503219, 9.944967181225213], \"connectivity\": 2, \"topology\": [68, 93], \"n_vector\": [0.10003716002570386, 0.4952486395454909, 0.8629723933257263], \"h_vector\": [0.4334011719336078, 0.7672580871693487, -0.4727350757451864], \"site_formula\": {\"Pd\": 2}}, \"smiles\": \"Cl[C]=O\", \"mdf\": 2.2255921994631, \"adsorbate_formula\": \"CO\"}" mace_E=-547.49482996556 converged=F n_steps=27 d_min=3.316446496850049 site_type=unknown dE_rel_meV=0 original_idx=50 rank=86 E_MACE=-545.3149810585674 pbc="T T T"
O        6.10552811       1.35163413       9.18736242  T       0.00000000       0.00000000       0.00000000
O        9.16077813       4.05438459       3.02679635  F       0.00000000       0.00000000       0.00000000
O        6.10442921       6.78747463       9.21068905  T       0.00000000       0.00000000       0.00000000
O        6.10514701       9.48477938       9.13989379  T       0.00000000       0.00000000       0.00000000
O        9.15094538       4.07062477       9.19221060  T       0.00000000       0.00000000       0.00000000
O        3.05047786       1.34819803       9.19969798  T       0.00000000       0.00000000       0.00000000
O        0.00000000       6.75730765       3.02679635  F       0.00000000       0.00000000       0.00000000
O        3.05726336       4.07365129       9.19657030  T       0.00000000       0.00000000       0.00000000
O        0.00000378       9.45637311       6.10263459  F       0.00000000       0.00000000       0.00000000
O        0.00000210       6.76116167       6.10263319  F       0.00000000       0.00000000       0.00000000
O       12.21192887       9.46991140       9.19486700  T       0.00000000       0.00000000       0.00000000
O       12.21303109       1.34290912       9.19317902  T       0.00000000       0.00000000       0.00000000
O       12.20842646       4.06359849       9.19141401  T       0.00000000       0.00000000       0.00000000
O        0.00000083       1.35531789       6.10263389  F       0.00000000       0.00000000       0.00000000
O        0.00000111       4.05052849       6.10263306  F       0.00000000       0.00000000       0.00000000
O        3.05359271       4.05438459       3.02679635  F       0.00000000       0.00000000       0.00000000
O        0.00000000       9.46023072       3.02679635  F       0.00000000       0.00000000       0.00000000
O        3.05359462       4.05052721       6.10264107  F       0.00000000       0.00000000       0.00000000
O        3.05359271       1.35146153       3.02679635  F       0.00000000       0.00000000       0.00000000
O        3.05359530       1.35531781       6.10264061  F       0.00000000       0.00000000       0.00000000
O        0.00000000       4.05438459       3.02679635  F       0.00000000       0.00000000       0.00000000
O        0.00000000       1.35146153       3.02679635  F       0.00000000       0.00000000       0.00000000
O        9.16077813       1.35146153       3.02679635  F       0.00000000       0.00000000       0.00000000
O        9.16077827       4.05052947       6.10263005  F       0.00000000       0.00000000       0.00000000
O       -0.00516183       6.75167521       9.19754326  T       0.00000000       0.00000000       0.00000000
O        9.15977410       1.34797397       9.19570397  T       0.00000000       0.00000000       0.00000000
O        9.16077740       1.35531546       6.10263307  F       0.00000000       0.00000000       0.00000000
O        6.10174441       4.08172827       9.18773190  T       0.00000000       0.00000000       0.00000000
O        6.10718702       1.35531501       6.10263790  F       0.00000000       0.00000000       0.00000000
O        6.10718706       4.05052983       6.10263604  F       0.00000000       0.00000000       0.00000000
O        6.10718542       1.35146153       3.02679635  F       0.00000000       0.00000000       0.00000000
O        6.10718542       4.05438459       3.02679635  F       0.00000000       0.00000000       0.00000000
O        3.05678203       9.47003381       9.19883584  T       0.00000000       0.00000000       0.00000000
O        3.05359386       6.76116323       6.10263934  F       0.00000000       0.00000000       0.00000000
O        3.05359337       9.45637518       6.10263943  F       0.00000000       0.00000000       0.00000000
O        3.05359271       6.75730765       3.02679635  F       0.00000000       0.00000000       0.00000000
O        3.04348592       6.75840640       9.20839467  T       0.00000000       0.00000000       0.00000000
O        6.10718542       9.46023072       3.02679635  F       0.00000000       0.00000000       0.00000000
O        6.10718542       6.75730765       3.02679635  F       0.00000000       0.00000000       0.00000000
O        6.10718315       9.45637324       6.10264060  F       0.00000000       0.00000000       0.00000000
O        6.10718523       6.76116316       6.10264025  F       0.00000000       0.00000000       0.00000000
O        9.16300433       6.75623525       9.20089676  T       0.00000000       0.00000000       0.00000000
O        9.15639354       9.47066309       9.19515085  T       0.00000000       0.00000000       0.00000000
O        9.16078028       6.76116138       6.10263509  F       0.00000000       0.00000000       0.00000000
O        9.16078018       9.45637411       6.10263910  F       0.00000000       0.00000000       0.00000000
O        9.16077813       6.75730765       3.02679635  F       0.00000000       0.00000000       0.00000000
O        3.05359271       9.46023072       3.02679635  F       0.00000000       0.00000000       0.00000000
O        9.16077813       9.46023072       3.02679635  F       0.00000000       0.00000000       0.00000000
Pd       3.05359414       2.70292461       4.56516084  F       0.00000000       0.00000000       0.00000000
Pd       6.10718542       2.70292306       1.50000000  F       0.00000000       0.00000000       0.00000000
Pd       3.05359287       8.10876720       4.56515841  F       0.00000000       0.00000000       0.00000000
Pd       3.05733557       2.71505298      10.83211253  T       0.00000000       0.00000000       0.00000000
Pd       3.05204993       2.70648216       7.66628789  T       0.00000000       0.00000000       0.00000000
Pd       3.05359271       2.70292306       1.50000000  F       0.00000000       0.00000000       0.00000000
Pd       4.58038906       5.40584612       3.02679635  F       0.00000000       0.00000000       0.00000000
Pd       4.58038878       0.00000011       6.09434618  F       0.00000000       0.00000000       0.00000000
Pd       4.58038808       5.40584530       6.09434913  F       0.00000000       0.00000000       0.00000000
Pd       7.63398177       0.00000000       3.02679635  F       0.00000000       0.00000000       0.00000000
Pd       3.05359271       8.10876919       1.50000000  F       0.00000000       0.00000000       0.00000000
Pd       6.10528092       8.12291790       7.66286241  T       0.00000000       0.00000000       0.00000000
Pd       7.63398372      10.81169054       6.09434173  F       0.00000000       0.00000000       0.00000000
Pd       6.10718498       8.10876457       4.56515665  F       0.00000000       0.00000000       0.00000000
Pd       1.52679863       5.40584339       6.09434623  F       0.00000000       0.00000000       0.00000000
Pd       7.63398177       5.40584612       3.02679635  F       0.00000000       0.00000000       0.00000000
Pd       6.10718542       8.10876919       1.50000000  F       0.00000000       0.00000000       0.00000000
Pd      -0.00168238       8.11001101       7.66265803  T       0.00000000       0.00000000       0.00000000
Pd       6.10802047       2.71835248      10.82408657  T       0.00000000       0.00000000       0.00000000
Pd       1.52181968       5.40988643       9.16708943  T       0.00000000       0.00000000       0.00000000
Pd       7.62978339       0.00529684       9.12755746  T       0.00000000       0.00000000       0.00000000
Pd       6.10356646       2.71002710       7.66229761  T       0.00000000       0.00000000       0.00000000
Pd      12.20397839       8.11153005      10.82720425  T       0.00000000       0.00000000       0.00000000
Pd       6.10718636       2.70292272       4.56515365  F       0.00000000       0.00000000       0.00000000
Pd       3.04694705       8.11029327       7.66601638  T       0.00000000       0.00000000       0.00000000
Pd       0.00000286       8.10876728       4.56515590  F       0.00000000       0.00000000       0.00000000
Pd       4.57644173       5.42227270       9.16135789  T       0.00000000       0.00000000       0.00000000
Pd       9.16077813       2.70292306       1.50000000  F       0.00000000       0.00000000       0.00000000
Pd       3.09352185       8.11598842      10.84243680  T       0.00000000       0.00000000       0.00000000
Pd       0.00000000       8.10876919       1.50000000  F       0.00000000       0.00000000       0.00000000
Pd       9.15299993       8.11068623      10.85033767  T       0.00000000       0.00000000       0.00000000
Pd       1.52679635       0.00000000       3.02679635  F       0.00000000       0.00000000       0.00000000
Pd       1.52679635       5.40584612       3.02679635  F       0.00000000       0.00000000       0.00000000
Pd      10.68757448       0.00000000       3.02679635  F       0.00000000       0.00000000       0.00000000
Pd      10.68257118       5.40908664       9.16260742  T       0.00000000       0.00000000       0.00000000
Pd       9.16077751       2.70292195       4.56515514  F       0.00000000       0.00000000       0.00000000
Pd      10.68757769      10.81169125       6.09434037  F       0.00000000       0.00000000       0.00000000
Pd       9.16077986       8.10876364       4.56515811  F       0.00000000       0.00000000       0.00000000
Pd       1.52679695      10.81169175       6.09434358  F       0.00000000       0.00000000       0.00000000
Pd       9.16571589       8.11115091       7.66539425  T       0.00000000       0.00000000       0.00000000
Pd       9.15784197       2.70533317       7.66381593  T       0.00000000       0.00000000       0.00000000
Pd      10.68407865       0.00161061       9.15610986  T       0.00000000       0.00000000       0.00000000
Pd       0.00000037       2.70292295       4.56515782  F       0.00000000       0.00000000       0.00000000
Pd       1.52687962      10.81150225       9.16086952  T       0.00000000       0.00000000       0.00000000
Pd       9.15088515       2.71571368      10.83069427  T       0.00000000       0.00000000       0.00000000
Pd       6.19886099       7.97545542      10.94813327  T       0.00000000       0.00000000       0.00000000
Pd      12.21309359       2.70239650       7.66169861  T       0.00000000       0.00000000       0.00000000
Pd      10.68757879       5.40584476       6.09434230  F       0.00000000       0.00000000       0.00000000
Pd       9.16077813       8.10876919       1.50000000  F       0.00000000       0.00000000       0.00000000
Pd      10.68757448       5.40584612       3.02679635  F       0.00000000       0.00000000       0.00000000
Pd      12.21315555       2.70954010      10.82663319  T       0.00000000       0.00000000       0.00000000
Pd       4.58146404      10.81672284       9.13394413  T       0.00000000       0.00000000       0.00000000
Pd       7.63398212       5.40584800       6.09434442  F       0.00000000       0.00000000       0.00000000
Pd       7.63006697       5.41853621       9.15401748  T       0.00000000       0.00000000       0.00000000
Pd       4.58038906       0.00000000       3.02679635  F       0.00000000       0.00000000       0.00000000
Pd       0.00000000       2.70292306       1.50000000  F       0.00000000       0.00000000       0.00000000
C        6.36431172       8.80241540      12.54427185  T       0.00000000       0.00000000       0.00000000
O        6.50428165       9.39181644      13.54225599  T       0.00000000       0.00000000       0.00000000
