106
Lattice="12.21437083684855 0.0 7e-16 1.7e-15 10.811692246786171 7e-16 0.0 0.0 29.250333490173453" Properties=species:S:1:pos:R:3:move_mask:L:1:momenta:R:3 adsorbate_info="_JSON {\"site\": {\"coordinates\": [2.7482261764065266, 10.81168782585346, 9.794327255049454], \"connectivity\": 5, \"topology\": [5, 32, 51, 76, 91], \"n_vector\": [-0.08851895269057891, 0.003989039134220643, 0.9960665050996086], \"h_vector\": [-0.7530990643734653, -0.6576152146358725, -0.019596650714508626], \"site_formula\": {\"O\": 2, \"Pd\": 3}}, \"smiles\": \"Cl[C]=O\", \"mdf\": 2.4920009122875864, \"adsorbate_formula\": \"CO\"}" mace_E=-547.5882544430696 converged=T n_steps=35 d_min=1.8038161701984696 site_type=atop dE_rel_meV=0 original_idx=19 rank=41 E_MACE=-547.4949381644628 pbc="T T T"
O        6.11095449       1.32340284       9.14616857  T       0.00000000       0.00000000       0.00000000
O        9.16077813       4.05438459       3.02679635  F       0.00000000       0.00000000       0.00000000
O        6.09919462       6.72105148       9.17327072  T       0.00000000       0.00000000       0.00000000
O        6.10353239       9.45111989       9.19051009  T       0.00000000       0.00000000       0.00000000
O        9.15468606       4.03960334       9.21487756  T       0.00000000       0.00000000       0.00000000
O        3.04023911       1.32035995       9.14461378  T       0.00000000       0.00000000       0.00000000
O        0.00000000       6.75730765       3.02679635  F       0.00000000       0.00000000       0.00000000
O        3.02427243       4.05109743       9.16864788  T       0.00000000       0.00000000       0.00000000
O        0.00000378       9.45637311       6.10263459  F       0.00000000       0.00000000       0.00000000
O        0.00000210       6.76116167       6.10263319  F       0.00000000       0.00000000       0.00000000
O       12.20675507       9.45243928       9.20118846  T       0.00000000       0.00000000       0.00000000
O       12.21803157       1.32798213       9.18543831  T       0.00000000       0.00000000       0.00000000
O       12.21467568       4.04474320       9.20662107  T       0.00000000       0.00000000       0.00000000
O        0.00000083       1.35531789       6.10263389  F       0.00000000       0.00000000       0.00000000
O        0.00000111       4.05052849       6.10263306  F       0.00000000       0.00000000       0.00000000
O        3.05359271       4.05438459       3.02679635  F       0.00000000       0.00000000       0.00000000
O        0.00000000       9.46023072       3.02679635  F       0.00000000       0.00000000       0.00000000
O        3.05359462       4.05052721       6.10264107  F       0.00000000       0.00000000       0.00000000
O        3.05359271       1.35146153       3.02679635  F       0.00000000       0.00000000       0.00000000
O        3.05359530       1.35531781       6.10264061  F       0.00000000       0.00000000       0.00000000
O        0.00000000       4.05438459       3.02679635  F       0.00000000       0.00000000       0.00000000
O        0.00000000       1.35146153       3.02679635  F       0.00000000       0.00000000       0.00000000
O        9.16077813       1.35146153       3.02679635  F       0.00000000       0.00000000       0.00000000
O        9.16077827       4.05052947       6.10263005  F       0.00000000       0.00000000       0.00000000
O       -0.01262272       6.73586124       9.18501288  T       0.00000000       0.00000000       0.00000000
O        9.15322907       1.32765464       9.18796117  T       0.00000000       0.00000000       0.00000000
O        9.16077740       1.35531546       6.10263307  F       0.00000000       0.00000000       0.00000000
O        6.12127607       4.03807728       9.17667594  T       0.00000000       0.00000000       0.00000000
O        6.10718702       1.35531501       6.10263790  F       0.00000000       0.00000000       0.00000000
O        6.10718706       4.05052983       6.10263604  F       0.00000000       0.00000000       0.00000000
O        6.10718542       1.35146153       3.02679635  F       0.00000000       0.00000000       0.00000000
O        6.10718542       4.05438459       3.02679635  F       0.00000000       0.00000000       0.00000000
O        3.05237418       9.45503243       9.18055723  T       0.00000000       0.00000000       0.00000000
O        3.05359386       6.76116323       6.10263934  F       0.00000000       0.00000000       0.00000000
O        3.05359337       9.45637518       6.10263943  F       0.00000000       0.00000000       0.00000000
O        3.05359271       6.75730765       3.02679635  F       0.00000000       0.00000000       0.00000000
O        3.05311396       6.72463698       9.17238079  T       0.00000000       0.00000000       0.00000000
O        6.10718542       9.46023072       3.02679635  F       0.00000000       0.00000000       0.00000000
O        6.10718542       6.75730765       3.02679635  F       0.00000000       0.00000000       0.00000000
O        6.10718315       9.45637324       6.10264060  F       0.00000000       0.00000000       0.00000000
O        6.10718523       6.76116316       6.10264025  F       0.00000000       0.00000000       0.00000000
O        9.15686132       6.73344728       9.18897971  T       0.00000000       0.00000000       0.00000000
O        9.16102283       9.44655956       9.21105106  T       0.00000000       0.00000000       0.00000000
O        9.16078028       6.76116138       6.10263509  F       0.00000000       0.00000000       0.00000000
O        9.16078018       9.45637411       6.10263910  F       0.00000000       0.00000000       0.00000000
O        9.16077813       6.75730765       3.02679635  F       0.00000000       0.00000000       0.00000000
O        3.05359271       9.46023072       3.02679635  F       0.00000000       0.00000000       0.00000000
O        9.16077813       9.46023072       3.02679635  F       0.00000000       0.00000000       0.00000000
Pd       3.05359414       2.70292461       4.56516084  F       0.00000000       0.00000000       0.00000000
Pd       6.10718542       2.70292306       1.50000000  F       0.00000000       0.00000000       0.00000000
Pd       3.05359287       8.10876720       4.56515841  F       0.00000000       0.00000000       0.00000000
Pd       2.99147592       2.63123992      10.96501351  T       0.00000000       0.00000000       0.00000000
Pd       3.03705373       2.69803303       7.66420948  T       0.00000000       0.00000000       0.00000000
Pd       3.05359271       2.70292306       1.50000000  F       0.00000000       0.00000000       0.00000000
Pd       4.58038906       5.40584612       3.02679635  F       0.00000000       0.00000000       0.00000000
Pd       4.58038878       0.00000011       6.09434618  F       0.00000000       0.00000000       0.00000000
Pd       4.58038808       5.40584530       6.09434913  F       0.00000000       0.00000000       0.00000000
Pd       7.63398177       0.00000000       3.02679635  F       0.00000000       0.00000000       0.00000000
Pd       3.05359271       8.10876919       1.50000000  F       0.00000000       0.00000000       0.00000000
Pd       6.10615709       8.10078766       7.65944936  T       0.00000000       0.00000000       0.00000000
Pd       7.63398372      10.81169054       6.09434173  F       0.00000000       0.00000000       0.00000000
Pd       6.10718498       8.10876457       4.56515665  F       0.00000000       0.00000000       0.00000000
Pd       1.52679863       5.40584339       6.09434623  F       0.00000000       0.00000000       0.00000000
Pd       7.63398177       5.40584612       3.02679635  F       0.00000000       0.00000000       0.00000000
Pd       6.10718542       8.10876919       1.50000000  F       0.00000000       0.00000000       0.00000000
Pd      -0.00923346       8.10442785       7.66118850  T       0.00000000       0.00000000       0.00000000
Pd       5.68708482       2.70327249      10.87285738  T       0.00000000       0.00000000       0.00000000
Pd       1.51741010       5.39631428       9.13074922  T       0.00000000       0.00000000       0.00000000
Pd       7.63106222      -0.01846202       9.13962581  T       0.00000000       0.00000000       0.00000000
Pd       6.12285079       2.69360810       7.65801954  T       0.00000000       0.00000000       0.00000000
Pd      12.21671636       8.07785106      10.82885466  T       0.00000000       0.00000000       0.00000000
Pd       6.10718636       2.70292272       4.56515365  F       0.00000000       0.00000000       0.00000000
Pd       3.05068508       8.10160795       7.65626733  T       0.00000000       0.00000000       0.00000000
Pd       0.00000286       8.10876728       4.56515590  F       0.00000000       0.00000000       0.00000000
Pd       4.57409904       5.37715512       9.12117210  T       0.00000000       0.00000000       0.00000000
Pd       9.16077813       2.70292306       1.50000000  F       0.00000000       0.00000000       0.00000000
Pd       3.07323835       8.07001776      10.81563493  T       0.00000000       0.00000000       0.00000000
Pd       0.00000000       8.10876919       1.50000000  F       0.00000000       0.00000000       0.00000000
Pd       9.15486339       8.07202728      10.83712844  T       0.00000000       0.00000000       0.00000000
Pd       1.52679635       0.00000000       3.02679635  F       0.00000000       0.00000000       0.00000000
Pd       1.52679635       5.40584612       3.02679635  F       0.00000000       0.00000000       0.00000000
Pd      10.68757448       0.00000000       3.02679635  F       0.00000000       0.00000000       0.00000000
Pd      10.68072276       5.38450359       9.16584554  T       0.00000000       0.00000000       0.00000000
Pd       9.16077751       2.70292195       4.56515514  F       0.00000000       0.00000000       0.00000000
Pd      10.68757769      10.81169125       6.09434037  F       0.00000000       0.00000000       0.00000000
Pd       9.16077986       8.10876364       4.56515811  F       0.00000000       0.00000000       0.00000000
Pd       1.52679695      10.81169175       6.09434358  F       0.00000000       0.00000000       0.00000000
Pd       9.16332712       8.10298117       7.66449276  T       0.00000000       0.00000000       0.00000000
Pd       9.15990802       2.69809190       7.66090375  T       0.00000000       0.00000000       0.00000000
Pd      10.68325680      -0.01284865       9.16596750  T       0.00000000       0.00000000       0.00000000
Pd       0.00000037       2.70292295       4.56515782  F       0.00000000       0.00000000       0.00000000
Pd       1.52423674      10.79159225       9.12469088  T       0.00000000       0.00000000       0.00000000
Pd       9.11728876       2.65760156      10.81962976  T       0.00000000       0.00000000       0.00000000
Pd       6.08298777       8.06537485      10.82109023  T       0.00000000       0.00000000       0.00000000
Pd      12.21086510       2.69769847       7.66267126  T       0.00000000       0.00000000       0.00000000
Pd      10.68757879       5.40584476       6.09434230  F       0.00000000       0.00000000       0.00000000
Pd       9.16077813       8.10876919       1.50000000  F       0.00000000       0.00000000       0.00000000
Pd      10.68757448       5.40584612       3.02679635  F       0.00000000       0.00000000       0.00000000
Pd      12.39309462       2.67073541      10.82849395  T       0.00000000       0.00000000       0.00000000
Pd       4.57850384      10.79208773       9.10511802  T       0.00000000       0.00000000       0.00000000
Pd       7.63398212       5.40584800       6.09434442  F       0.00000000       0.00000000       0.00000000
Pd       7.63298043       5.38665651       9.14150150  T       0.00000000       0.00000000       0.00000000
Pd       4.58038906       0.00000000       3.02679635  F       0.00000000       0.00000000       0.00000000
Pd       0.00000000       2.70292306       1.50000000  F       0.00000000       0.00000000       0.00000000
C        4.45926684      12.86952403      12.19901482  T       0.00000000       0.00000000       0.00000000
O        4.38658818      12.37554625      13.27944503  T       0.00000000       0.00000000       0.00000000
