111
Lattice="12.21437083684855 0.0 7e-16 1.7e-15 10.811692246786171 7e-16 0.0 0.0 29.250333490173453" Properties=species:S:1:pos:R:3:move_mask:L:1:momenta:R:3:forces:R:3 idx=3065 E_MACE=-574.669287721137 d_min=1.6685122629066735 d_reactive=3.324241980543275 E=-574.669287721137 converged=T n_steps=131 d_z=0.6193859528348362 fingerprint="_JSON [1.12, 1.16, 1.22, 2.04, 2.55, 2.59, 2.59, 3.04, 3.08, 3.24, 3.32, 3.46, 3.72, 4.35, 4.38, 4.51, 4.74, 6.49, 6.55, 6.59, 6.65]" dE_rel_meV=452.6020549461691 energy=-574.669287721137 stress="0.0013629801331833313 6.971292598498471e-05 -8.73200827419308e-05 6.971292598498471e-05 -0.0010478812299400501 -2.976042233570799e-05 -8.73200827419308e-05 -2.976042233570799e-05 -0.003966728816611278" pbc="T T T"
O        6.11057143       1.36112452       9.20304834  T       0.00000000       0.00000000       0.00000000       0.00082665       0.02398868       0.00416214
O        9.16077813       4.05438459       3.02679635  F       0.00000000       0.00000000       0.00000000      -0.00011112       0.48081570       0.29402120
O        6.10558539       6.75724437       9.17974764  T       0.00000000       0.00000000       0.00000000       0.00291280      -0.00116018       0.01243642
O        6.09481331       9.49272972       9.16918186  T       0.00000000       0.00000000       0.00000000       0.00857724      -0.01777811      -0.00758031
O        9.15109480       4.06819306       9.13484496  T       0.00000000       0.00000000       0.00000000       0.00913887       0.00472772       0.00760431
O        3.02517697       1.36211989       9.21996051  T       0.00000000       0.00000000       0.00000000       0.00148999      -0.00349856       0.00225730
O        0.00000000       6.75730765       3.02679635  F       0.00000000       0.00000000       0.00000000      -0.00280922      -0.47734026       0.29560222
O        3.02976761       4.07671360       9.20702118  T       0.00000000       0.00000000       0.00000000       0.00258270      -0.01932136      -0.00873651
O        0.00301178       9.45372277       6.10123709  T       0.00000000       0.00000000       0.00000000      -0.01133035       0.00498481       0.02093248
O        0.00000210       6.76116167       6.10263319  F       0.00000000       0.00000000       0.00000000       0.01211162       0.02306158      -0.00028704
O       12.21058990       9.45951627       9.18487204  T       0.00000000       0.00000000       0.00000000      -0.00045571       0.00745161       0.00639838
O       12.19999364       1.33870249       9.17765766  T       0.00000000       0.00000000       0.00000000      -0.01299591      -0.01070431       0.00654545
O       12.21675066       4.07698187       9.15765440  T       0.00000000       0.00000000       0.00000000       0.00507352       0.00248996       0.01709548
O       -0.00031310       1.35774221       6.10294704  T       0.00000000       0.00000000       0.00000000       0.01530335      -0.00091490       0.00888823
O        0.00000111       4.05052849       6.10263306  F       0.00000000       0.00000000       0.00000000       0.03032476      -0.02885685      -0.00911353
O        3.05359271       4.05438459       3.02679635  F       0.00000000       0.00000000       0.00000000      -0.00071361       0.47335317       0.28995399
O        0.00000000       9.46023072       3.02679635  F       0.00000000       0.00000000       0.00000000      -0.00045070       0.47901570       0.29407527
O        3.05356454       4.04807127       6.10819753  T       0.00000000       0.00000000       0.00000000       0.00213980      -0.00762746      -0.00602657
O        3.05359271       1.35146153       3.02679635  F       0.00000000       0.00000000       0.00000000      -0.00098147      -0.47467826       0.29165232
O        3.05354588       1.36059112       6.11083377  T       0.00000000       0.00000000       0.00000000      -0.00336684      -0.00179054       0.00866387
O        0.00000000       4.05438459       3.02679635  F       0.00000000       0.00000000       0.00000000      -0.00002889       0.47773119       0.29339867
O        0.00000000       1.35146153       3.02679635  F       0.00000000       0.00000000       0.00000000      -0.00006501      -0.47816908       0.29292983
O        9.16077813       1.35146153       3.02679635  F       0.00000000       0.00000000       0.00000000       0.00024406      -0.47943920       0.29320306
O        9.16077827       4.05052947       6.10263005  F       0.00000000       0.00000000       0.00000000      -0.01151578      -0.02108923       0.00945585
O       -0.02488913       6.76034109       9.19181501  T       0.00000000       0.00000000       0.00000000       0.00209915       0.00974091       0.03387973
O        9.17459008       1.32898233       9.14858873  T       0.00000000       0.00000000       0.00000000       0.00746268      -0.00331967       0.00862593
O        9.16077740       1.35531546       6.10263307  F       0.00000000       0.00000000       0.00000000       0.00914207      -0.00598877      -0.00149752
O        6.06924922       4.07496646       9.17973664  T       0.00000000       0.00000000       0.00000000       0.01261258      -0.02348132      -0.00806522
O        6.10747253       1.35877566       6.10662622  T       0.00000000       0.00000000       0.00000000      -0.01582083       0.01331682       0.01685047
O        6.10407807       4.04875979       6.10320318  T       0.00000000       0.00000000       0.00000000      -0.00787706       0.00553170       0.00273477
O        6.10718542       1.35146153       3.02679635  F       0.00000000       0.00000000       0.00000000       0.00258669      -0.47660215       0.29341673
O        6.10718542       4.05438459       3.02679635  F       0.00000000       0.00000000       0.00000000       0.00023741       0.47636277       0.29260617
O        3.05745955       9.47649759       9.19984749  T       0.00000000       0.00000000       0.00000000       0.02073661       0.01016680       0.01701467
O        3.05349894       6.76539410       6.10889841  T       0.00000000       0.00000000       0.00000000      -0.00204085       0.00202034       0.00016628
O        3.05408272       9.45477157       6.10479702  T       0.00000000       0.00000000       0.00000000       0.00137279      -0.00230384       0.00580002
O        3.05359271       6.75730765       3.02679635  F       0.00000000       0.00000000       0.00000000       0.00021443      -0.47619790       0.29266805
O        3.04629939       6.77056948       9.21306523  T       0.00000000       0.00000000       0.00000000       0.00341303      -0.01926689      -0.01801999
O        6.10718542       9.46023072       3.02679635  F       0.00000000       0.00000000       0.00000000       0.00137993       0.47750335       0.29268718
O        6.10718542       6.75730765       3.02679635  F       0.00000000       0.00000000       0.00000000       0.00154222      -0.47850240       0.29511373
O        6.10519873       9.45611744       6.10157842  T       0.00000000       0.00000000       0.00000000      -0.00320974      -0.00711206      -0.00432470
O        6.10517658       6.76490620       6.10286515  T       0.00000000       0.00000000       0.00000000       0.00303824      -0.00900549       0.02052160
O        9.14542213       6.72558874       9.14011507  T       0.00000000       0.00000000       0.00000000       0.00910697       0.01676164      -0.01116974
O        9.14684895       9.45507092       9.11747242  T       0.00000000       0.00000000       0.00000000      -0.00264784       0.00394125       0.03989690
O        9.15906390       6.75283597       6.09290479  T       0.00000000       0.00000000       0.00000000       0.00886897      -0.01340325      -0.00336611
O        9.15950951       9.45062779       6.10544756  T       0.00000000       0.00000000       0.00000000       0.00701513       0.02043741      -0.02207157
O        9.16077813       6.75730765       3.02679635  F       0.00000000       0.00000000       0.00000000       0.00045163      -0.47978018       0.29155173
O        3.05359271       9.46023072       3.02679635  F       0.00000000       0.00000000       0.00000000       0.00054028       0.47542251       0.28958353
O        9.16077813       9.46023072       3.02679635  F       0.00000000       0.00000000       0.00000000       0.00103811       0.48545851       0.30076603
Pd       3.05359414       2.70292461       4.56516084  F       0.00000000       0.00000000       0.00000000       0.00481169      -0.00262271       0.24329593
Pd       6.10718542       2.70292306       1.50000000  F       0.00000000       0.00000000       0.00000000       0.00026942      -0.00040393      -0.90259166
Pd       3.05359287       8.10876720       4.56515841  F       0.00000000       0.00000000       0.00000000      -0.00337937      -0.00163947       0.20084545
Pd       2.55803463       2.73011778      10.77941046  T       0.00000000       0.00000000       0.00000000      -0.00151057       0.00113970      -0.01345690
Pd       3.04923432       2.71001120       7.67148856  T       0.00000000       0.00000000       0.00000000      -0.00351402      -0.00459501       0.01860346
Pd       3.05359271       2.70292306       1.50000000  F       0.00000000       0.00000000       0.00000000      -0.00040422      -0.00016822      -0.90492553
Pd       4.58038906       5.40584612       3.02679635  F       0.00000000       0.00000000       0.00000000      -0.00090832       0.00014794       0.05535595
Pd       4.58038878       0.00000011       6.09434618  F       0.00000000       0.00000000       0.00000000      -0.00477212       0.05589110       0.06536996
Pd       4.58038808       5.40584530       6.09434913  F       0.00000000       0.00000000       0.00000000      -0.02369437       0.01745876       0.07366957
Pd       7.63398177       0.00000000       3.02679635  F       0.00000000       0.00000000       0.00000000       0.00100941       0.00054277       0.05107950
Pd       3.05359271       8.10876919       1.50000000  F       0.00000000       0.00000000       0.00000000       0.00043968      -0.00022056      -0.90344555
Pd       6.09031980       8.11359013       7.65905895  T       0.00000000       0.00000000       0.00000000      -0.01987836      -0.02378200       0.01059661
Pd       7.63398372      10.81169054       6.09434173  F       0.00000000       0.00000000       0.00000000       0.01194461      -0.01156217       0.06594966
Pd       6.10718498       8.10876457       4.56515665  F       0.00000000       0.00000000       0.00000000      -0.00894128       0.01294641       0.15205321
Pd       1.52679863       5.40584339       6.09434623  F       0.00000000       0.00000000       0.00000000       0.01713038       0.01270081       0.07816065
Pd       7.63398177       5.40584612       3.02679635  F       0.00000000       0.00000000       0.00000000       0.00000879      -0.00234597       0.05087034
Pd       6.10718542       8.10876919       1.50000000  F       0.00000000       0.00000000       0.00000000      -0.00041043      -0.00019764      -0.90184757
Pd       0.00477795       8.10557200       7.65743976  T       0.00000000       0.00000000       0.00000000       0.01049217      -0.01128643      -0.00373488
Pd       6.53222593       2.68255796      10.80770230  T       0.00000000       0.00000000       0.00000000       0.00861418       0.01450915      -0.02162445
Pd       1.51294514       5.43404036       9.13833565  T       0.00000000       0.00000000       0.00000000      -0.01323922       0.02171155       0.00890136
Pd       7.62747415       0.00881115       9.08994073  T       0.00000000       0.00000000       0.00000000      -0.00537882      -0.01146795      -0.00354425
Pd       6.08198297       2.71348437       7.66602696  T       0.00000000       0.00000000       0.00000000       0.01085149       0.02338263       0.00771786
Pd      11.78738664       8.14504681      10.79092156  T       0.00000000       0.00000000       0.00000000      -0.00322090      -0.01228170      -0.01841292
Pd       6.10718636       2.70292272       4.56515365  F       0.00000000       0.00000000       0.00000000      -0.01185598      -0.01150328       0.19446025
Pd       3.05059642       8.11483564       7.66695073  T       0.00000000       0.00000000       0.00000000      -0.01004525       0.00408362      -0.00567404
Pd       0.00000286       8.10876728       4.56515590  F       0.00000000       0.00000000       0.00000000       0.00991701      -0.00773523       0.14568971
Pd       4.56327297       5.41931785       9.14539174  T       0.00000000       0.00000000       0.00000000      -0.01975665       0.01155708      -0.01566688
Pd       9.16077813       2.70292306       1.50000000  F       0.00000000       0.00000000       0.00000000      -0.00026807       0.00045501      -0.90215073
Pd       3.42864141       8.12657683      10.78976693  T       0.00000000       0.00000000       0.00000000       0.01515669       0.01402292       0.01414822
Pd       0.00000000       8.10876919       1.50000000  F       0.00000000       0.00000000       0.00000000      -0.00038552      -0.00041412      -0.90192903
Pd       9.06875636       8.55634262      10.99336677  T       0.00000000       0.00000000       0.00000000      -0.00253108      -0.01689599      -0.02308395
Pd       1.52679635       0.00000000       3.02679635  F       0.00000000       0.00000000       0.00000000       0.00056610       0.00081443       0.05599843
Pd       1.52679635       5.40584612       3.02679635  F       0.00000000       0.00000000       0.00000000       0.00070064      -0.00031479       0.05368008
Pd      10.68757448       0.00000000       3.02679635  F       0.00000000       0.00000000       0.00000000      -0.00160397      -0.00060802       0.05077918
Pd      10.66977139       5.40281193       9.07307419  T       0.00000000       0.00000000       0.00000000      -0.02449483       0.01087628       0.00089363
Pd       9.16077751       2.70292195       4.56515514  F       0.00000000       0.00000000       0.00000000      -0.00270670      -0.00742452       0.21728033
Pd      10.68757769      10.81169125       6.09434037  F       0.00000000       0.00000000       0.00000000      -0.01263486      -0.04636980       0.06228807
Pd       9.16077986       8.10876364       4.56515811  F       0.00000000       0.00000000       0.00000000      -0.00341907       0.01450861       0.14223137
Pd       1.52679695      10.81169175       6.09434358  F       0.00000000       0.00000000       0.00000000       0.01131719       0.02755881       0.06489673
Pd       9.15530179       8.07088955       7.64948482  T       0.00000000       0.00000000       0.00000000      -0.00124679       0.01328670      -0.01579319
Pd       9.15949566       2.70545263       7.66591711  T       0.00000000       0.00000000       0.00000000      -0.00088621       0.03502791      -0.02811383
Pd      10.68988978      -0.01217170       9.07785444  T       0.00000000       0.00000000       0.00000000      -0.00866637       0.00471108      -0.00201577
Pd       0.00000037       2.70292295       4.56515782  F       0.00000000       0.00000000       0.00000000       0.00555486       0.00245262       0.18115428
Pd       1.51985996      10.80253781       9.15756541  T       0.00000000       0.00000000       0.00000000      -0.00685206       0.04009757       0.00258366
Pd       9.21132600       2.53810882      11.03034098  T       0.00000000       0.00000000       0.00000000       0.02201870       0.02194257       0.02334879
Pd       6.26979702       8.16908323      10.83498703  T       0.00000000       0.00000000       0.00000000       0.00208531       0.00085087       0.01335237
Pd      12.22902893       2.70757542       7.66392167  T       0.00000000       0.00000000       0.00000000      -0.00840705       0.01021778       0.00513257
Pd      10.68757879       5.40584476       6.09434230  F       0.00000000       0.00000000       0.00000000       0.00699065      -0.05148617       0.05568098
Pd       9.16077813       8.10876919       1.50000000  F       0.00000000       0.00000000       0.00000000       0.00026361       0.00022761      -0.90192053
Pd      10.68757448       5.40584612       3.02679635  F       0.00000000       0.00000000       0.00000000       0.00089340      -0.00155093       0.05137520
Pd      11.96227359       2.66852899      10.88945151  T       0.00000000       0.00000000       0.00000000      -0.03966559       0.01445043      -0.02032530
Pd       4.56808838      10.84205593       9.16801607  T       0.00000000       0.00000000       0.00000000      -0.00591729      -0.00330613       0.00999277
Pd       7.63398212       5.40584800       6.09434442  F       0.00000000       0.00000000       0.00000000      -0.06655407      -0.05805054       0.06869151
Pd       7.62441559       5.40449688       9.07776740  T       0.00000000       0.00000000       0.00000000       0.00278737      -0.02441129      -0.01135957
Pd       4.58038906       0.00000000       3.02679635  F       0.00000000       0.00000000       0.00000000       0.00062154       0.00091181       0.05724592
Pd       0.00000000       2.70292306       1.50000000  F       0.00000000       0.00000000       0.00000000       0.00036009      -0.00002115      -0.90250390
C        9.00515395       8.11867078      12.75461885  T       0.00000000       0.00000000       0.00000000      -0.01111309      -0.00186415      -0.02050048
O        8.97239633       7.92388812      13.90251294  T       0.00000000       0.00000000       0.00000000       0.00677212      -0.02127608       0.02119257
O        8.48126369       4.85666193      12.38662153  T       0.00000000       0.00000000       0.00000000       0.02168951      -0.00264232       0.00572323
C        9.04435642       3.77871634      12.50434594  T       0.00000000       0.00000000       0.00000000       0.00671045      -0.00073207      -0.00559407
H        9.50919509       3.46613685      13.47659866  T       0.00000000       0.00000000       0.00000000       0.00405711       0.00321536      -0.00180981
H        7.67496266       1.80558565      11.64972693  T       0.00000000       0.00000000       0.00000000       0.02618084      -0.01320097       0.02753589
H       10.70921282       1.93868507      11.76633110  T       0.00000000       0.00000000       0.00000000       0.01088411       0.00372952      -0.01870167
