111
Lattice="12.21437083684855 0.0 7e-16 1.7e-15 10.811692246786171 7e-16 0.0 0.0 29.250333490173453" Properties=species:S:1:pos:R:3:move_mask:L:1:momenta:R:3:forces:R:3 idx=3018 E_MACE=-574.81906688317 d_min=1.6779610259631101 d_reactive=3.641661289673846 E=-574.81906688317 converged=T n_steps=165 d_z=0.6554677583136321 fingerprint="_JSON [1.12, 1.19, 1.22, 2.05, 2.53, 2.61, 2.63, 3.01, 3.11, 3.17, 3.78, 10.23, 10.29, 10.82, 10.93, 11.12, 11.23, 11.68, 11.87, 13.42, 13.51]" dE_rel_meV=302.82289291324105 energy=-574.81906688317 stress="0.001326281437462139 -6.981003605860637e-06 0.00013492037126710301 -6.981003605860637e-06 -0.0009662600797068783 3.0479125822673648e-05 0.00013492037126710301 3.0479125822673648e-05 -0.003940795488931403" pbc="T T T"
O        6.13576075       1.37364617       9.23063697  T       0.00000000       0.00000000       0.00000000       0.00372626       0.00849885      -0.00897580
O        9.16077813       4.05438459       3.02679635  F       0.00000000       0.00000000       0.00000000       0.00032426       0.47888397       0.29771200
O        6.14894472       6.78924908       9.22397398  T       0.00000000       0.00000000       0.00000000      -0.00325217      -0.01654726       0.01291426
O        6.13169209       9.48537642       9.21138253  T       0.00000000       0.00000000       0.00000000       0.00347599      -0.00361419       0.00902924
O        9.16686358       4.08619332       9.13699552  T       0.00000000       0.00000000       0.00000000       0.02535231      -0.01638545       0.00690487
O        3.06113600       1.36965314       9.22233877  T       0.00000000       0.00000000       0.00000000       0.01310465       0.00282686      -0.00448481
O        0.00000000       6.75730765       3.02679635  F       0.00000000       0.00000000       0.00000000      -0.00152614      -0.48192247       0.29930752
O        3.10760956       4.08306140       9.18272575  T       0.00000000       0.00000000       0.00000000       0.01120339      -0.01272487       0.00251351
O        0.00289971       9.45839862       6.09670368  T       0.00000000       0.00000000       0.00000000      -0.00700092      -0.03184472      -0.01294136
O        0.00000210       6.76116167       6.10263319  F       0.00000000       0.00000000       0.00000000       0.02014543      -0.05006632      -0.06821217
O       12.25190991       9.47844928       9.11670433  T       0.00000000       0.00000000       0.00000000       0.01552682       0.00624583       0.02908128
O       12.21983133       1.33214429       9.14857176  T       0.00000000       0.00000000       0.00000000      -0.00564646      -0.01961507       0.00149763
O       12.23365179       4.07643681       9.13135802  T       0.00000000       0.00000000       0.00000000      -0.00895866      -0.00224108      -0.01132548
O        0.00065095       1.35720691       6.10394904  T       0.00000000       0.00000000       0.00000000       0.00086117      -0.02123258      -0.00596332
O        0.00000111       4.05052849       6.10263306  F       0.00000000       0.00000000       0.00000000       0.02272244      -0.00305355      -0.00911885
O        3.05359271       4.05438459       3.02679635  F       0.00000000       0.00000000       0.00000000      -0.00089983       0.47372504       0.28684884
O        0.00000000       9.46023072       3.02679635  F       0.00000000       0.00000000       0.00000000       0.00021376       0.48017977       0.29447498
O        3.05731692       4.04903046       6.10294216  T       0.00000000       0.00000000       0.00000000       0.00690619      -0.01085351       0.01396632
O        3.05359271       1.35146153       3.02679635  F       0.00000000       0.00000000       0.00000000      -0.00290884      -0.47675859       0.29232231
O        3.05443944       1.36243307       6.11479018  T       0.00000000       0.00000000       0.00000000       0.00992383      -0.01058820      -0.01343813
O        0.00000000       4.05438459       3.02679635  F       0.00000000       0.00000000       0.00000000       0.00038818       0.47999655       0.29287127
O        0.00000000       1.35146153       3.02679635  F       0.00000000       0.00000000       0.00000000       0.00070834      -0.48047384       0.29449078
O        9.16077813       1.35146153       3.02679635  F       0.00000000       0.00000000       0.00000000       0.00024028      -0.47899918       0.29596551
O        9.16077827       4.05052947       6.10263005  F       0.00000000       0.00000000       0.00000000      -0.02278525      -0.00001685      -0.07035577
O        0.02800332       6.74119542       9.13878601  T       0.00000000       0.00000000       0.00000000      -0.00862187      -0.04418026      -0.00472809
O        9.19697775       1.34246375       9.15856889  T       0.00000000       0.00000000       0.00000000       0.00799205       0.00500039       0.00231135
O        9.16077740       1.35531546       6.10263307  F       0.00000000       0.00000000       0.00000000       0.00516881       0.00453632      -0.02086672
O        6.13740759       4.08537015       9.20300082  T       0.00000000       0.00000000       0.00000000      -0.00596665      -0.00240295       0.00489659
O        6.10556201       1.36148945       6.11440388  T       0.00000000       0.00000000       0.00000000       0.00048530       0.00195208      -0.00547475
O        6.10566038       4.04650433       6.10729702  T       0.00000000       0.00000000       0.00000000       0.00544919       0.01452102      -0.00197407
O        6.10718542       1.35146153       3.02679635  F       0.00000000       0.00000000       0.00000000       0.00162324      -0.47428440       0.29168401
O        6.10718542       4.05438459       3.02679635  F       0.00000000       0.00000000       0.00000000       0.00160612       0.47296058       0.28800548
O        3.07097652       9.47780861       9.21658213  T       0.00000000       0.00000000       0.00000000      -0.01399450       0.00362865      -0.01985898
O        3.05405320       6.76854293       6.11229242  T       0.00000000       0.00000000       0.00000000       0.01240815      -0.00755451      -0.00124800
O        3.05520967       9.45449828       6.10636889  T       0.00000000       0.00000000       0.00000000       0.01687296      -0.01526812       0.01444466
O        3.05359271       6.75730765       3.02679635  F       0.00000000       0.00000000       0.00000000      -0.00097619      -0.47666796       0.29370646
O        3.05704571       6.76991104       9.20983335  T       0.00000000       0.00000000       0.00000000       0.02114550       0.00577856       0.00024978
O        6.10718542       9.46023072       3.02679635  F       0.00000000       0.00000000       0.00000000       0.00010077       0.47381872       0.28566811
O        6.10718542       6.75730765       3.02679635  F       0.00000000       0.00000000       0.00000000       0.00104832      -0.47671634       0.29304754
O        6.10632374       9.45530297       6.10374061  T       0.00000000       0.00000000       0.00000000      -0.01107387      -0.00868029       0.02037422
O        6.10791689       6.76892179       6.11271508  T       0.00000000       0.00000000       0.00000000      -0.01332219      -0.00335363       0.00785590
O        9.18589972       6.75554245       9.14686895  T       0.00000000       0.00000000       0.00000000      -0.01100941       0.00263632      -0.01222247
O        9.15508714       9.48584801       9.12331217  T       0.00000000       0.00000000       0.00000000      -0.00415616       0.02437434      -0.00786487
O        9.16156784       6.75890520       6.10015712  T       0.00000000       0.00000000       0.00000000       0.00060865       0.02056188      -0.01532964
O        9.15921163       9.45849935       6.09503089  T       0.00000000       0.00000000       0.00000000       0.00193405      -0.03027528      -0.00325041
O        9.16077813       6.75730765       3.02679635  F       0.00000000       0.00000000       0.00000000       0.00148857      -0.48166622       0.29846873
O        3.05359271       9.46023072       3.02679635  F       0.00000000       0.00000000       0.00000000       0.00003331       0.47359353       0.28675260
O        9.16077813       9.46023072       3.02679635  F       0.00000000       0.00000000       0.00000000      -0.00052564       0.48153163       0.29519031
Pd       3.05359414       2.70292461       4.56516084  F       0.00000000       0.00000000       0.00000000       0.01351103      -0.02016440       0.25232939
Pd       6.10718542       2.70292306       1.50000000  F       0.00000000       0.00000000       0.00000000       0.00042159      -0.00047382      -0.90567091
Pd       3.05359287       8.10876720       4.56515841  F       0.00000000       0.00000000       0.00000000       0.00697068       0.00366892       0.24883001
Pd       2.64538452       2.69801431      10.81994390  T       0.00000000       0.00000000       0.00000000      -0.00709689       0.00146008      -0.01722209
Pd       3.08722459       2.71726733       7.67539208  T       0.00000000       0.00000000       0.00000000       0.00554385       0.00559812      -0.00907266
Pd       3.05359271       2.70292306       1.50000000  F       0.00000000       0.00000000       0.00000000      -0.00019178      -0.00106353      -0.90377977
Pd       4.58038906       5.40584612       3.02679635  F       0.00000000       0.00000000       0.00000000       0.00023785       0.00139636       0.06245096
Pd       4.58038878       0.00000011       6.09434618  F       0.00000000       0.00000000       0.00000000      -0.01886884       0.06260680       0.07952238
Pd       4.58038808       5.40584530       6.09434913  F       0.00000000       0.00000000       0.00000000       0.01880845       0.07306648       0.08193595
Pd       7.63398177       0.00000000       3.02679635  F       0.00000000       0.00000000       0.00000000      -0.00168172       0.00154691       0.05316724
Pd       3.05359271       8.10876919       1.50000000  F       0.00000000       0.00000000       0.00000000      -0.00011480       0.00024710      -0.90481473
Pd       6.10852958       8.12390542       7.67542213  T       0.00000000       0.00000000       0.00000000       0.01403170      -0.01274424      -0.01129110
Pd       7.63398372      10.81169054       6.09434173  F       0.00000000       0.00000000       0.00000000      -0.04970248       0.04811157       0.07448090
Pd       6.10718498       8.10876457       4.56515665  F       0.00000000       0.00000000       0.00000000      -0.00677234      -0.00415571       0.23658442
Pd       1.52679863       5.40584339       6.09434623  F       0.00000000       0.00000000       0.00000000       0.04068639       0.02036778       0.09849139
Pd       7.63398177       5.40584612       3.02679635  F       0.00000000       0.00000000       0.00000000      -0.00161937      -0.00005893       0.05359488
Pd       6.10718542       8.10876919       1.50000000  F       0.00000000       0.00000000       0.00000000       0.00002843      -0.00024509      -0.90396592
Pd       0.02512655       8.10260377       7.64988010  T       0.00000000       0.00000000       0.00000000       0.00997389       0.00855667      -0.00440109
Pd       6.62518553       2.74354197      10.77704328  T       0.00000000       0.00000000       0.00000000       0.01481419       0.00514029      -0.01335877
Pd       1.55212893       5.40525414       9.08190191  T       0.00000000       0.00000000       0.00000000      -0.01087627       0.00638850       0.01032427
Pd       7.64868508       0.02462415       9.11451954  T       0.00000000       0.00000000       0.00000000       0.00016787      -0.03565893       0.00258143
Pd       6.10305100       2.71333376       7.67567325  T       0.00000000       0.00000000       0.00000000       0.00475427      -0.00184026      -0.00244234
Pd      12.07249631       8.17147641      10.93716986  T       0.00000000       0.00000000       0.00000000       0.00785645       0.01007128       0.02235975
Pd       6.10718636       2.70292272       4.56515365  F       0.00000000       0.00000000       0.00000000      -0.00927226      -0.02054747       0.26305750
Pd       3.07248899       8.11773059       7.67593619  T       0.00000000       0.00000000       0.00000000       0.00950245       0.00167709      -0.01100319
Pd       0.00000286       8.10876728       4.56515590  F       0.00000000       0.00000000       0.00000000       0.00949115       0.00041164       0.13655853
Pd       4.61269009       5.44605429       9.15955965  T       0.00000000       0.00000000       0.00000000       0.00585793      -0.02714354       0.01999304
Pd       9.16077813       2.70292306       1.50000000  F       0.00000000       0.00000000       0.00000000      -0.00040077      -0.00001002      -0.90391871
Pd       2.64908856       8.13974243      10.79925053  T       0.00000000       0.00000000       0.00000000      -0.01614934      -0.00207267      -0.00293735
Pd       0.00000000       8.10876919       1.50000000  F       0.00000000       0.00000000       0.00000000       0.00040618      -0.00031544      -0.90270828
Pd       9.37532858       8.18951163      10.94085994  T       0.00000000       0.00000000       0.00000000      -0.00118663       0.00044045       0.03359860
Pd       1.52679635       0.00000000       3.02679635  F       0.00000000       0.00000000       0.00000000       0.00043002       0.00087937       0.05502289
Pd       1.52679635       5.40584612       3.02679635  F       0.00000000       0.00000000       0.00000000      -0.00061976       0.00082016       0.05391165
Pd      10.68757448       0.00000000       3.02679635  F       0.00000000       0.00000000       0.00000000       0.00051300       0.00213806       0.05092808
Pd      10.71073843       5.40958712       9.05963666  T       0.00000000       0.00000000       0.00000000       0.03674632      -0.01129548      -0.02014917
Pd       9.16077751       2.70292195       4.56515514  F       0.00000000       0.00000000       0.00000000      -0.00828412      -0.00410038       0.16568076
Pd      10.68757769      10.81169125       6.09434037  F       0.00000000       0.00000000       0.00000000       0.02383130       0.02141015       0.03982763
Pd       9.16077986       8.10876364       4.56515811  F       0.00000000       0.00000000       0.00000000      -0.00613678      -0.00868981       0.12647177
Pd       1.52679695      10.81169175       6.09434358  F       0.00000000       0.00000000       0.00000000       0.05071307       0.06123679       0.07957721
Pd       9.15681828       8.10833856       7.65267179  T       0.00000000       0.00000000       0.00000000      -0.02373175       0.00795230      -0.03608020
Pd       9.15948552       2.70840893       7.65418272  T       0.00000000       0.00000000       0.00000000      -0.00569261       0.02189817      -0.00292685
Pd      10.70848291      -0.01354693       9.05680762  T       0.00000000       0.00000000       0.00000000      -0.00909043       0.00266601       0.00795016
Pd       0.00000037       2.70292295       4.56515782  F       0.00000000       0.00000000       0.00000000       0.00352097      -0.00527435       0.21377515
Pd       1.54959833      10.81938558       9.09707560  T       0.00000000       0.00000000       0.00000000      -0.02174390      -0.00951719      -0.00164900
Pd       9.45156968       2.67738016      10.86504632  T       0.00000000       0.00000000       0.00000000      -0.03554685       0.03383209      -0.00323140
Pd       6.58473321       8.16107098      10.80401235  T       0.00000000       0.00000000       0.00000000      -0.01505349      -0.01742443      -0.01215355
Pd      12.22281358       2.70925930       7.66431958  T       0.00000000       0.00000000       0.00000000       0.00376538       0.01301575       0.01067771
Pd      10.68757879       5.40584476       6.09434230  F       0.00000000       0.00000000       0.00000000       0.01778075      -0.00944470       0.06867673
Pd       9.16077813       8.10876919       1.50000000  F       0.00000000       0.00000000       0.00000000      -0.00024018      -0.00046160      -0.90126995
Pd      10.68757448       5.40584612       3.02679635  F       0.00000000       0.00000000       0.00000000      -0.00030220      -0.00213558       0.05258450
Pd      12.19096246       2.56164673      11.01943644  T       0.00000000       0.00000000       0.00000000      -0.00467208      -0.00111108      -0.00301991
Pd       4.60018069      10.83529523       9.20481364  T       0.00000000       0.00000000       0.00000000      -0.01156589      -0.02433817      -0.00198008
Pd       7.63398212       5.40584800       6.09434442  F       0.00000000       0.00000000       0.00000000      -0.04726994       0.01457199       0.09264013
Pd       7.65804872       5.43193142       9.10097735  T       0.00000000       0.00000000       0.00000000      -0.02824807       0.02053774       0.00786655
Pd       4.58038906       0.00000000       3.02679635  F       0.00000000       0.00000000       0.00000000      -0.00118837       0.00191617       0.06370534
Pd       0.00000000       2.70292306       1.50000000  F       0.00000000       0.00000000       0.00000000       0.00019706       0.00011130      -0.90275209
C       10.71601258       7.66615202      12.27257772  T       0.00000000       0.00000000       0.00000000      -0.01412851      -0.03731067      -0.00085439
O       10.71277717       7.23495679      13.38153352  T       0.00000000       0.00000000       0.00000000       0.00250375       0.00915039      -0.00342382
O        0.82134009       4.85951239      12.33148848  T       0.00000000       0.00000000       0.00000000       0.00352483      -0.01916883       0.01659680
C        0.16319824       3.83748799      12.45931393  T       0.00000000       0.00000000       0.00000000      -0.03019734       0.00626270       0.03756075
H       -0.38467260       3.60824825      13.41020526  T       0.00000000       0.00000000       0.00000000       0.00076150       0.02482616      -0.01663430
H       -1.51477107       1.94621787      11.74293614  T       0.00000000       0.00000000       0.00000000      -0.01109922       0.00324067       0.02691261
H        1.49238550       1.82899800      11.67490420  T       0.00000000       0.00000000       0.00000000       0.00122915       0.00228118      -0.01243777
