111
Lattice="12.21437083684855 0.0 7e-16 1.7e-15 10.811692246786171 7e-16 0.0 0.0 29.250333490173453" Properties=species:S:1:pos:R:3:move_mask:L:1:momenta:R:3:forces:R:3 idx=2051 E_MACE=-574.1964112039822 d_min=1.73249123038957 d_reactive=2.894534528945589 E=-574.1964112039822 converged=T n_steps=67 d_z=0.9888411635351826 fingerprint="_JSON [1.11, 1.12, 1.18, 1.23, 1.38, 1.7, 1.79, 1.95, 2.06, 2.13, 2.2, 2.89, 3.43, 4.12, 4.37, 4.54, 4.6, 4.79, 4.84, 5.03, 5.43]" dE_rel_meV=925.4785721010421 energy=-574.1964112039822 stress="0.0015029020168965948 2.5723694214577274e-05 9.299632950138262e-05 2.5723694214577274e-05 -0.0010384454283219246 -4.6825927988818025e-05 9.299632950138262e-05 -4.6825927988818025e-05 -0.003965881514837354" pbc="T T T"
O        6.11648098       1.33985804       9.18311050  T       0.00000000       0.00000000       0.00000000       0.02163271       0.00136139       0.01930094
O        9.16077813       4.05438459       3.02679635  F       0.00000000       0.00000000       0.00000000       0.00037591       0.48032037       0.29548625
O        6.12366267       6.73794389       9.17901859  T       0.00000000       0.00000000       0.00000000      -0.00268938       0.00184058      -0.01376679
O        6.11680774       9.46292004       9.18821284  T       0.00000000       0.00000000       0.00000000       0.00439464      -0.00861107       0.00218886
O        9.17489064       4.06548465       9.15516160  T       0.00000000       0.00000000       0.00000000      -0.00612708       0.00212991       0.00870894
O        3.06109523       1.33216576       9.16748541  T       0.00000000       0.00000000       0.00000000       0.01724883       0.01322152      -0.02925143
O        0.00000000       6.75730765       3.02679635  F       0.00000000       0.00000000       0.00000000      -0.00031676      -0.47545439       0.28744147
O        3.07095751       4.03661137       9.21034197  T       0.00000000       0.00000000       0.00000000       0.01105769       0.00807630      -0.01903587
O        0.00162581       9.45016105       6.11012739  T       0.00000000       0.00000000       0.00000000      -0.00106203       0.00546914      -0.00131354
O        0.00000210       6.76116167       6.10263319  F       0.00000000       0.00000000       0.00000000       0.02285686       0.02924675       0.02633135
O       12.23188580       9.44756085       9.20521008  T       0.00000000       0.00000000       0.00000000       0.02150569      -0.01106903       0.01958341
O       12.21900333       1.32894204       9.18336032  T       0.00000000       0.00000000       0.00000000       0.00075484       0.01652898       0.02161348
O       12.22442230       4.04351787       9.20423675  T       0.00000000       0.00000000       0.00000000      -0.01392640      -0.01930004       0.01223420
O        0.00153547       1.35656068       6.10199302  T       0.00000000       0.00000000       0.00000000      -0.00874790      -0.00198815       0.00554367
O        0.00000111       4.05052849       6.10263306  F       0.00000000       0.00000000       0.00000000       0.02603543      -0.04263590       0.04659081
O        3.05359271       4.05438459       3.02679635  F       0.00000000       0.00000000       0.00000000       0.00085629       0.47761090       0.29195180
O        0.00000000       9.46023072       3.02679635  F       0.00000000       0.00000000       0.00000000       0.00049813       0.47814142       0.29373781
O        3.05357588       4.04666873       6.10716413  T       0.00000000       0.00000000       0.00000000       0.00109085       0.01861983       0.00621649
O        3.05359271       1.35146153       3.02679635  F       0.00000000       0.00000000       0.00000000       0.00088724      -0.47590527       0.29181829
O        3.05298465       1.35615737       6.10456900  T       0.00000000       0.00000000       0.00000000       0.00798505       0.00802997      -0.00716395
O        0.00000000       4.05438459       3.02679635  F       0.00000000       0.00000000       0.00000000      -0.00103300       0.47567013       0.29435266
O        0.00000000       1.35146153       3.02679635  F       0.00000000       0.00000000       0.00000000      -0.00038941      -0.47686421       0.29485409
O        9.16077813       1.35146153       3.02679635  F       0.00000000       0.00000000       0.00000000       0.00040730      -0.47932986       0.29493867
O        9.16077827       4.05052947       6.10263005  F       0.00000000       0.00000000       0.00000000       0.00715811       0.06405181      -0.05117203
O        0.02371623       6.73289269       9.19658238  T       0.00000000       0.00000000       0.00000000       0.02412857      -0.00009865      -0.00968196
O        9.19036065       1.32265724       9.12392107  T       0.00000000       0.00000000       0.00000000      -0.00934084      -0.00331755      -0.00003023
O        9.16077740       1.35531546       6.10263307  F       0.00000000       0.00000000       0.00000000       0.01813159       0.02211093      -0.04279618
O        6.14812380       4.07469038       9.15906963  T       0.00000000       0.00000000       0.00000000      -0.00603435      -0.00597974       0.01182369
O        6.10548341       1.36044914       6.11228937  T       0.00000000       0.00000000       0.00000000       0.00985701       0.00824147      -0.02310243
O        6.10729847       4.04698766       6.10892417  T       0.00000000       0.00000000       0.00000000       0.00757781       0.01059919      -0.01784705
O        6.10718542       1.35146153       3.02679635  F       0.00000000       0.00000000       0.00000000       0.00021103      -0.47492919       0.29264769
O        6.10718542       4.05438459       3.02679635  F       0.00000000       0.00000000       0.00000000       0.00166744       0.47638721       0.28936050
O        3.06682281       9.45801915       9.18974341  T       0.00000000       0.00000000       0.00000000      -0.01553178      -0.01146931       0.01270482
O        3.05363890       6.76189204       6.10180917  T       0.00000000       0.00000000       0.00000000       0.00255835       0.00853239       0.02575658
O        3.05328630       9.45182905       6.10774794  T       0.00000000       0.00000000       0.00000000       0.00346841       0.00453115       0.00173121
O        3.05359271       6.75730765       3.02679635  F       0.00000000       0.00000000       0.00000000       0.00022802      -0.47663855       0.28794761
O        3.07092884       6.73142744       9.19079829  T       0.00000000       0.00000000       0.00000000      -0.00017832      -0.00984943       0.00017484
O        6.10718542       9.46023072       3.02679635  F       0.00000000       0.00000000       0.00000000      -0.00034237       0.47753751       0.29419804
O        6.10718542       6.75730765       3.02679635  F       0.00000000       0.00000000       0.00000000      -0.00050684      -0.47586030       0.29258017
O        6.10786281       9.45314637       6.10673635  T       0.00000000       0.00000000       0.00000000      -0.01111449       0.00566248      -0.01145406
O        6.10770153       6.76169246       6.10384026  T       0.00000000       0.00000000       0.00000000      -0.00664228       0.02044785       0.00788185
O        9.18911616       6.73970156       9.17388098  T       0.00000000       0.00000000       0.00000000      -0.02223664      -0.01295099       0.01566550
O        9.17305760       9.45588618       9.17752154  T       0.00000000       0.00000000       0.00000000       0.00319557       0.00184939       0.00417718
O        9.16211574       6.75973912       6.09984840  T       0.00000000       0.00000000       0.00000000       0.00192711       0.00929693       0.00820758
O        9.16085978       9.45377144       6.10318109  T       0.00000000       0.00000000       0.00000000       0.00205045      -0.00147459       0.00125395
O        9.16077813       6.75730765       3.02679635  F       0.00000000       0.00000000       0.00000000       0.00056895      -0.47722117       0.29381702
O        3.05359271       9.46023072       3.02679635  F       0.00000000       0.00000000       0.00000000       0.00052124       0.47823448       0.29450716
O        9.16077813       9.46023072       3.02679635  F       0.00000000       0.00000000       0.00000000      -0.00082705       0.48079296       0.29624013
Pd       3.05359414       2.70292461       4.56516084  F       0.00000000       0.00000000       0.00000000      -0.00473736      -0.00151395       0.21831793
Pd       6.10718542       2.70292306       1.50000000  F       0.00000000       0.00000000       0.00000000      -0.00020292      -0.00013121      -0.90603769
Pd       3.05359287       8.10876720       4.56515841  F       0.00000000       0.00000000       0.00000000      -0.00111142       0.00862631       0.17507913
Pd       3.70583698       2.73007967      10.80815066  T       0.00000000       0.00000000       0.00000000       0.00901371      -0.00412982      -0.00214835
Pd       3.05034934       2.69602679       7.66837620  T       0.00000000       0.00000000       0.00000000      -0.01617464       0.00714170       0.01975877
Pd       3.05359271       2.70292306       1.50000000  F       0.00000000       0.00000000       0.00000000       0.00066072       0.00049823      -0.90242223
Pd       4.58038906       5.40584612       3.02679635  F       0.00000000       0.00000000       0.00000000       0.00007919      -0.00028643       0.05475815
Pd       4.58038878       0.00000011       6.09434618  F       0.00000000       0.00000000       0.00000000       0.00452903       0.00384018       0.08175010
Pd       4.58038808       5.40584530       6.09434913  F       0.00000000       0.00000000       0.00000000      -0.00229085      -0.03920589       0.08673432
Pd       7.63398177       0.00000000       3.02679635  F       0.00000000       0.00000000       0.00000000      -0.00143892       0.00016977       0.05466003
Pd       3.05359271       8.10876919       1.50000000  F       0.00000000       0.00000000       0.00000000      -0.00016916       0.00019275      -0.90285135
Pd       6.11089191       8.10555553       7.66314963  T       0.00000000       0.00000000       0.00000000       0.00789810      -0.02406620      -0.03531522
Pd       7.63398372      10.81169054       6.09434173  F       0.00000000       0.00000000       0.00000000      -0.04337998       0.02869852       0.08194897
Pd       6.10718498       8.10876457       4.56515665  F       0.00000000       0.00000000       0.00000000       0.00056783       0.00430467       0.18059026
Pd       1.52679863       5.40584339       6.09434623  F       0.00000000       0.00000000       0.00000000       0.02080628      -0.04098822       0.05075636
Pd       7.63398177       5.40584612       3.02679635  F       0.00000000       0.00000000       0.00000000      -0.00184715      -0.00010129       0.05306159
Pd       6.10718542       8.10876919       1.50000000  F       0.00000000       0.00000000       0.00000000       0.00009968      -0.00042087      -0.90404200
Pd       0.01616526       8.09698113       7.67016923  T       0.00000000       0.00000000       0.00000000      -0.00468356      -0.00277708      -0.02507572
Pd       6.36786677       2.32803929      11.01053543  T       0.00000000       0.00000000       0.00000000      -0.01700473       0.01755960      -0.01325150
Pd       1.54539506       5.38395497       9.15973837  T       0.00000000       0.00000000       0.00000000      -0.03601460       0.01530845      -0.00191589
Pd       7.64319694      -0.02006738       9.11359377  T       0.00000000       0.00000000       0.00000000       0.00103502       0.00408990       0.00031286
Pd       6.11353040       2.72216111       7.68092678  T       0.00000000       0.00000000       0.00000000       0.01037157      -0.03139005      -0.01209477
Pd      12.23483299       8.08712478      10.83973194  T       0.00000000       0.00000000       0.00000000      -0.01657757      -0.00088006      -0.00573285
Pd       6.10718636       2.70292272       4.56515365  F       0.00000000       0.00000000       0.00000000      -0.00645526      -0.02498900       0.29715039
Pd       3.05563829       8.09999848       7.66495566  T       0.00000000       0.00000000       0.00000000      -0.00914447      -0.02078973      -0.01519736
Pd       0.00000286       8.10876728       4.56515590  F       0.00000000       0.00000000       0.00000000       0.00139458       0.00606392       0.20041945
Pd       4.60590288       5.39183356       9.11699357  T       0.00000000       0.00000000       0.00000000      -0.01445586      -0.00215296      -0.01339113
Pd       9.16077813       2.70292306       1.50000000  F       0.00000000       0.00000000       0.00000000      -0.00007500       0.00038381      -0.90278261
Pd       3.14934494       8.08609061      10.82089192  T       0.00000000       0.00000000       0.00000000      -0.02123514       0.00330339       0.02291064
Pd       0.00000000       8.10876919       1.50000000  F       0.00000000       0.00000000       0.00000000       0.00006351       0.00033734      -0.90324660
Pd       9.19590318       8.11508551      10.82213893  T       0.00000000       0.00000000       0.00000000      -0.01016794      -0.02727698       0.00307654
Pd       1.52679635       0.00000000       3.02679635  F       0.00000000       0.00000000       0.00000000      -0.00034980      -0.00161195       0.05780895
Pd       1.52679635       5.40584612       3.02679635  F       0.00000000       0.00000000       0.00000000       0.00045981       0.00042307       0.05521947
Pd      10.68757448       0.00000000       3.02679635  F       0.00000000       0.00000000       0.00000000      -0.00076144      -0.00121060       0.05247364
Pd      10.70532655       5.39400793       9.11441021  T       0.00000000       0.00000000       0.00000000      -0.02141141      -0.00888295       0.01482837
Pd       9.16077751       2.70292195       4.56515514  F       0.00000000       0.00000000       0.00000000      -0.00163062      -0.02676632       0.17108515
Pd      10.68757769      10.81169125       6.09434037  F       0.00000000       0.00000000       0.00000000       0.02506456      -0.03125713       0.06073552
Pd       9.16077986       8.10876364       4.56515811  F       0.00000000       0.00000000       0.00000000       0.00208783       0.00370282       0.13149275
Pd       1.52679695      10.81169175       6.09434358  F       0.00000000       0.00000000       0.00000000       0.01058651      -0.04220108       0.06955259
Pd       9.17027697       8.10098141       7.65616005  T       0.00000000       0.00000000       0.00000000       0.01307116       0.00342630      -0.02202661
Pd       9.17767917       2.72275402       7.65422867  T       0.00000000       0.00000000       0.00000000       0.00427593      -0.01574395       0.03765477
Pd      10.71134977      -0.03227027       9.12351462  T       0.00000000       0.00000000       0.00000000       0.00019178       0.02372368       0.01009385
Pd       0.00000037       2.70292295       4.56515782  F       0.00000000       0.00000000       0.00000000       0.00693146       0.00810615       0.15292185
Pd       1.53857168      10.80605799       9.15329862  T       0.00000000       0.00000000       0.00000000       0.01023280      -0.04060456      -0.00263949
Pd       9.03796003       2.25298183      10.94513678  T       0.00000000       0.00000000       0.00000000       0.00154785       0.01416644       0.00592267
Pd       6.15168541       8.09299986      10.82531601  T       0.00000000       0.00000000       0.00000000      -0.01119325       0.01221562       0.00472113
Pd      12.22909187       2.69850806       7.65714831  T       0.00000000       0.00000000       0.00000000      -0.00486815       0.02109587       0.02218893
Pd      10.68757879       5.40584476       6.09434230  F       0.00000000       0.00000000       0.00000000       0.00725239      -0.00810242       0.05916581
Pd       9.16077813       8.10876919       1.50000000  F       0.00000000       0.00000000       0.00000000       0.00010646      -0.00049820      -0.90242749
Pd      10.68757448       5.40584612       3.02679635  F       0.00000000       0.00000000       0.00000000      -0.00069612       0.00031486       0.04834455
Pd      11.74655361       2.65561022      10.76265685  T       0.00000000       0.00000000       0.00000000       0.01944550      -0.00402801       0.00888706
Pd       4.58357143      10.79105426       9.11324293  T       0.00000000       0.00000000       0.00000000      -0.00157463       0.04723348      -0.01436154
Pd       7.63398212       5.40584800       6.09434442  F       0.00000000       0.00000000       0.00000000      -0.02447226      -0.00979918       0.07482222
Pd       7.65882550       5.39964902       9.08643330  T       0.00000000       0.00000000       0.00000000       0.01897960       0.00297609       0.00680922
Pd       4.58038906       0.00000000       3.02679635  F       0.00000000       0.00000000       0.00000000       0.00112898      -0.00016834       0.05499923
Pd       0.00000000       2.70292306       1.50000000  F       0.00000000       0.00000000       0.00000000      -0.00042444       0.00038241      -0.90174865
C        4.65438775       1.60564852      11.99937659  T       0.00000000       0.00000000       0.00000000       0.00572546      -0.02055994       0.01704937
O        4.61844340       0.75815625      12.82321503  T       0.00000000       0.00000000       0.00000000       0.01078605       0.02027999      -0.03761377
O        6.87952451       3.32694896      12.68071450  T       0.00000000       0.00000000       0.00000000       0.02156156      -0.00024102       0.02296984
C        8.24784956       3.48999816      12.72806024  T       0.00000000       0.00000000       0.00000000       0.00107774       0.01254533       0.00392552
H        8.58943491       3.70139827      13.76437090  T       0.00000000       0.00000000       0.00000000      -0.00871686       0.00007225      -0.00348937
H        8.89213636       2.44232152      12.66106563  T       0.00000000       0.00000000       0.00000000      -0.00719731       0.01402801      -0.00937664
H        8.67536895       4.29620822      12.08248015  T       0.00000000       0.00000000       0.00000000      -0.04036007       0.00396891      -0.00272229
