       N       E                     dE             d eps       ncg     rms          rms(c)
DAV:   1     0.777581955331E+03    0.77758E+03   -0.39944E+04  3320   0.194E+03
DAV:   2     0.734646540342E+01   -0.77024E+03   -0.74296E+03  3376   0.576E+02
DAV:   3    -0.213771834569E+02   -0.28724E+02   -0.28200E+02  3552   0.116E+02
DAV:   4    -0.216828334326E+02   -0.30565E+00   -0.30560E+00  3424   0.128E+01
DAV:   5    -0.216879182612E+02   -0.50848E-02   -0.50848E-02  3536   0.160E+00    0.110E+01
DAV:   6    -0.208680384901E+02    0.81988E+00   -0.37544E+00  3480   0.137E+01    0.238E+00
DAV:   7    -0.208654589037E+02    0.25796E-02   -0.42486E-02  3368   0.153E+00    0.146E+00
DAV:   8    -0.208624192528E+02    0.30397E-02   -0.42302E-03  3512   0.553E-01    0.842E-01
DAV:   9    -0.208615348048E+02    0.88445E-03   -0.16562E-03  3400   0.360E-01    0.900E-02
DAV:  10    -0.208616998149E+02   -0.16501E-03   -0.16984E-04  3456   0.109E-01    0.240E-02
DAV:  11    -0.208617010563E+02   -0.12414E-05   -0.56214E-06  3200   0.201E-02    0.113E-02
DAV:  12    -0.208616960034E+02    0.50529E-05   -0.26265E-06  2816   0.125E-02    0.321E-03
DAV:  13    -0.208616956431E+02    0.36027E-06   -0.33072E-07  1800   0.538E-03
   1 F= -.23482621E+02 E0= -.23484376E+02  d E =0.526665E-02  mag=     1.3906
