       N       E                     dE             d eps       ncg     rms          rms(c)
DAV:   1     0.776919769166E+03    0.77692E+03   -0.39949E+04 19768   0.194E+03
DAV:   2     0.710062092389E+01   -0.76982E+03   -0.74226E+03 20152   0.574E+02
DAV:   3    -0.213810320412E+02   -0.28482E+02   -0.27845E+02 21392   0.116E+02
DAV:   4    -0.216852000464E+02   -0.30417E+00   -0.30410E+00 20624   0.128E+01
DAV:   5    -0.216901726390E+02   -0.49726E-02   -0.49725E-02 21376   0.159E+00    0.107E+01
DAV:   6    -0.208290803448E+02    0.86109E+00   -0.37836E+00 20696   0.138E+01    0.226E+00
DAV:   7    -0.208271284259E+02    0.19519E-02   -0.40196E-02 20456   0.149E+00    0.146E+00
DAV:   8    -0.208242000926E+02    0.29283E-02   -0.43035E-03 21208   0.548E-01    0.820E-01
DAV:   9    -0.208239358287E+02    0.26426E-03   -0.16872E-03 21440   0.355E-01    0.841E-02
DAV:  10    -0.208240697607E+02   -0.13393E-03   -0.14217E-04 20808   0.963E-02    0.248E-02
DAV:  11    -0.208240728700E+02   -0.31093E-05   -0.55045E-06 19336   0.208E-02    0.127E-02
DAV:  12    -0.208240656762E+02    0.71938E-05   -0.20406E-06 14576   0.113E-02    0.278E-03
DAV:  13    -0.208240651371E+02    0.53913E-06   -0.23259E-07 10512   0.486E-03
   1 F= -.23444990E+02 E0= -.23444431E+02  d E =-.167686E-02  mag=     1.4016
