 vasp.6.4.3 19Mar24 (build Nov 27 2025 15:18:09) complex                         
 executed on              LinuxNV date 2026.06.04  16:37:42
 running    4 mpi-ranks, with    1 threads/rank, on    1 nodes
 distrk:  each k-point on    4 cores,    1 groups
 distr:  one band on NCORE=   1 cores,    4 groups
 OpenACC runtime initialized ...    0 GPUs detected


--------------------------------------------------------------------------------------------------------


 INCAR:
   SYSTEM = pddmc
   ENCUT = 520
   PREC = Accurate
   LASPH = .TRUE.
   ADDGRID = .TRUE.
   ISPIN = 2
   IVDW = 12
   EDIFF = 1e-06
   NELM = 200
   NELMIN = 5
   ALGO = Normal
   NCORE = 1
   LREAL = .FALSE.
   LWAVE = .FALSE.
   LCHARG = .FALSE.
   LORBIT = 11
   ISYM = 2
   IBRION = -1
   NSW = 0
   ISIF = 0
   ISMEAR = 1
   SIGMA = 0.1
   EDIFFG = -0.01

 POTCAR:    PAW_PBE Pd_pv 28Jan2005               
 -----------------------------------------------------------------------------
|                                                                             |
|           W    W    AA    RRRRR   N    N  II  N    N   GGGG   !!!           |
|           W    W   A  A   R    R  NN   N  II  NN   N  G    G  !!!           |
|           W    W  A    A  R    R  N N  N  II  N N  N  G       !!!           |
|           W WW W  AAAAAA  RRRRR   N  N N  II  N  N N  G  GGG   !            |
|           WW  WW  A    A  R   R   N   NN  II  N   NN  G    G                |
|           W    W  A    A  R    R  N    N  II  N    N   GGGG   !!!           |
|                                                                             |
|     You use a magnetic or noncollinear calculation, but did not specify     |
|     the initial magnetic moment with the MAGMOM tag. Note that a            |
|     default of 1 will be used for all atoms. This ferromagnetic setup       |
|     may break the symmetry of the crystal, in particular it may rule        |
|     out finding an antiferromagnetic solution. Thence, we recommend         |
|     setting the initial magnetic moment manually or verifying carefully     |
|     that this magnetic setup is desired.                                    |
|                                                                             |
 -----------------------------------------------------------------------------

 POTCAR:    PAW_PBE Pd_pv 28Jan2005               
   SHA256 =  3ce661545bbde58da9a95410dea32907db2844916708bcd35bbe03ee66324d7f Pd_pv/POTCAR          
   COPYR  = (c) Copyright 28Jan2005 Georg Kresse                                                    
   COPYR  = This file is part of the software VASP. Any use, copying, and all other rights are regul
   COPYR  = If you do not have a valid VASP license, you may not use, copy or distribute this file. 
   VRHFIN =Pd: 4p5s4d                                                                               
   LEXCH  = PE                                                                                      
   EATOM  =  2621.5550 eV,  192.6789 Ry                                                             
                                                                                                    
   TITEL  = PAW_PBE Pd_pv 28Jan2005                                                                 
   LULTRA =        F    use ultrasoft PP ?                                                          
   IUNSCR =        1    unscreen: 0-lin 1-nonlin 2-no                                               
   RPACOR =    2.250    partial core radius                                                         
   POMASS =  106.420; ZVAL   =   16.000    mass and valenz                                          
   RCORE  =    2.400    outmost cutoff radius                                                       
   RWIGS  =    2.300; RWIGS  =    1.217    wigner-seitz radius (au A)                               
   ENMAX  =  250.925; ENMIN  =  188.194 eV                                                          
   ICORE  =        3    local potential                                                             
   LCOR   =        T    correct aug charges                                                         
   LPAW   =        T    paw PP                                                                      
   EAUG   =  473.067                                                                                
   DEXC   =    0.000                                                                                
   RMAX   =    2.449    core radius for proj-oper                                                   
   RAUG   =    1.300    factor for augmentation sphere                                              
   RDEP   =    2.405    radius for radial grids                                                     
   RDEPT  =    1.966    core radius for aug-charge                                                  
                                                                                                    
   Atomic configuration                                                                             
   11 entries                                                                                       
     n  l   j            E        occ.                                                              
     1  0  0.50    -24164.6632   2.0000                                                             
     2  0  0.50     -3530.9218   2.0000                                                             
     2  1  1.50     -3165.6822   6.0000                                                             
     3  0  0.50      -639.4578   2.0000                                                             
     3  1  1.50      -519.4532   6.0000                                                             
     3  2  2.50      -328.9758  10.0000                                                             
     4  0  0.50       -88.7014   2.0000                                                             
     4  1  1.50       -54.4541   6.0000                                                             
     4  2  2.50        -6.6878   9.0000                                                             
     5  0  0.50        -4.3543   1.0000                                                             
     4  3  2.50        -1.3606   0.0000                                                             
   Description                                                                                      
     l       E           TYP  RCUT    TYP  RCUT                                                     
     1    -54.4540524     23  2.100                                                                 
     1      4.0817478     23  2.100                                                                 
     2     -6.6878326     23  2.400                                                                 
     2     -4.0817478     23  2.400                                                                 
     0     -4.3542962     23  2.400                                                                 
     0     13.6058260     23  2.400                                                                 
     3     -5.4423304     23  2.400                                                                 
  local pseudopotential read in
  partial core-charges read in
  partial kinetic energy density read in
  atomic valenz-charges read in
  non local Contribution for L=            1  read in
    real space projection operators read in
  non local Contribution for L=            1  read in
    real space projection operators read in
  non local Contribution for L=            2  read in
    real space projection operators read in
  non local Contribution for L=            2  read in
    real space projection operators read in
  non local Contribution for L=            0  read in
    real space projection operators read in
  non local Contribution for L=            0  read in
    real space projection operators read in
    PAW grid and wavefunctions read in
 
   number of l-projection  operators is LMAX  =            6
   number of lm-projection operators is LMMAX =           18
 
  PAW_PBE Pd_pv 28Jan2005               :
 energy of atom  1       EATOM=-2621.5550
 kinetic energy error for atom=    0.0088 (will be added to EATOM!!)
 
 
 POSCAR: Pd
  positions in cartesian coordinates
  No initial velocities read in
 IVDW         = 12
 VDW_S6       =    1.0000
 VDW_S8       =    0.7875
 VDW_A1       =    0.4289
 VDW_A2       =    4.4407
 VDW_RADIUS   =   50.2022 A
 VDW_CNRADIUS =   21.1671 A


 exchange-correlation table for PE
   RHO(1)=    0.500       N(1)  =     2000
   RHO(2)=  100.500       N(2)  =     4000
 


--------------------------------------------------------------------------------------------------------


 ion  position               nearest neighbor table
   1  0.000  0.000  0.000-   2 2.77   3 2.77   2 2.77   3 2.77   2 2.77   4 2.77   2 2.77   3 2.77
                             4 2.77   3 2.77   4 2.77   4 2.77
   2  0.000  0.500  0.500-   1 2.77   4 2.77   1 2.77   4 2.77   1 2.77   3 2.77   1 2.77   3 2.77
                             4 2.77   4 2.77   3 2.77   3 2.77
   3  0.500  0.000  0.500-   1 2.77   4 2.77   1 2.77   4 2.77   2 2.77   4 2.77   4 2.77   1 2.77
                             2 2.77   1 2.77   2 2.77   2 2.77
   4  0.500  0.500  0.000-   2 2.77   3 2.77   2 2.77   3 2.77   1 2.77   3 2.77   3 2.77   1 2.77
                             2 2.77   2 2.77   1 2.77   1 2.77
 
  LATTYP: Found a simple cubic cell.
 ALAT       =     3.9173015750
  
  Lattice vectors:
  
 A1 = (   3.9173015750,   0.0000000000,   0.0000000000)
 A2 = (   0.0000000000,   3.9173015750,   0.0000000000)
 A3 = (   0.0000000000,   0.0000000000,   3.9173015750)


Analysis of symmetry for initial positions (statically):
=====================================================================
 Subroutine PRICEL returns following result:
 
  LATTYP: Found a face centered cubic cell.
 ALAT       =     3.9173015750
  
  Lattice vectors:
  
 A1 = (   1.9586507875,  -1.9586507875,   0.0000000000)
 A2 = (   1.9586507875,   0.0000000000,   1.9586507875)
 A3 = (   0.0000000000,  -1.9586507875,   1.9586507875)
 
   4 primitive cells build up your supercell.
 

 Routine SETGRP: Setting up the symmetry group for a 
 simple cubic supercell.


 Subroutine GETGRP returns: Found 48 space group operations
 (whereof 48 operations were pure point group operations)
 out of a pool of 48 trial point group operations.


The static configuration has the point symmetry O_h .


Analysis of symmetry for dynamics (positions and initial velocities):
=====================================================================
 Subroutine PRICEL returns following result:
 
  LATTYP: Found a face centered cubic cell.
 ALAT       =     3.9173015750
  
  Lattice vectors:
  
 A1 = (   1.9586507875,  -1.9586507875,   0.0000000000)
 A2 = (   1.9586507875,   0.0000000000,   1.9586507875)
 A3 = (   0.0000000000,  -1.9586507875,   1.9586507875)
 
   4 primitive cells build up your supercell.
 

 Routine SETGRP: Setting up the symmetry group for a 
 simple cubic supercell.


 Subroutine GETGRP returns: Found 48 space group operations
 (whereof 48 operations were pure point group operations)
 out of a pool of 48 trial point group operations.


The dynamic configuration has the point symmetry O_h .


Analysis of structural, dynamic, and magnetic symmetry:
=====================================================================
 Subroutine PRICEL returns following result:
 
  LATTYP: Found a face centered cubic cell.
 ALAT       =     3.9173015750
  
  Lattice vectors:
  
 A1 = (   1.9586507875,  -1.9586507875,   0.0000000000)
 A2 = (   1.9586507875,   0.0000000000,   1.9586507875)
 A3 = (   0.0000000000,  -1.9586507875,   1.9586507875)
 
   4 primitive cells build up your supercell.
 

 Routine SETGRP: Setting up the symmetry group for a 
 simple cubic supercell.


 Subroutine GETGRP returns: Found 48 space group operations
 (whereof 48 operations were pure point group operations)
 out of a pool of 48 trial point group operations.


The overall configuration has the point symmetry O_h .


 Subroutine INISYM returns: Found 48 space group operations
 (whereof 48 operations are pure point group operations),
 and found     4 'primitive' translations


----------------------------------------------------------------------------------------

                                     Primitive cell                                     

  volume of cell :      15.0280

  direct lattice vectors                    reciprocal lattice vectors
     1.958650787 -1.958650787  0.000000000     0.255277767 -0.255277767 -0.255277767
     1.958650787  0.000000000  1.958650787     0.255277767  0.255277767  0.255277767
     0.000000000 -1.958650787  1.958650787    -0.255277767 -0.255277767  0.255277767

  length of vectors
     2.769950508  2.769950508  2.769950508     0.442154063  0.442154063  0.442154063

  position of ions in fractional coordinates (direct lattice)
     0.000000000  0.000000000  0.000000000

  ion indices of the primitive-cell ions
   primitive index   ion index
                 1           1

----------------------------------------------------------------------------------------

 
 
 KPOINTS: Automatic mesh                          

Automatic generation of k-mesh.
 Grid dimensions read from file:
 generate k-points for:   14   14   14

 Generating k-lattice:

  Cartesian coordinates                     Fractional coordinates (reciprocal lattice)
     0.018234126 -0.000000000  0.000000000     0.071428571  0.000000000  0.000000000
     0.000000000  0.018234126  0.000000000     0.000000000  0.071428571  0.000000000
    -0.000000000 -0.000000000  0.018234126     0.000000000 -0.000000000  0.071428571

  Length of vectors
     0.018234126  0.018234126  0.018234126

  Shift w.r.t. Gamma in fractional coordinates (k-lattice)
     0.000000000  0.000000000  0.000000000

 
 Subroutine IBZKPT returns following result:
 ===========================================
 
 Found    120 irreducible k-points:
 
 Following reciprocal coordinates:
            Coordinates               Weight
  0.000000  0.000000  0.000000      1.000000
  0.071429  0.000000  0.000000      6.000000
  0.142857  0.000000  0.000000      6.000000
  0.214286  0.000000  0.000000      6.000000
  0.285714  0.000000  0.000000      6.000000
  0.357143  0.000000  0.000000      6.000000
  0.428571  0.000000  0.000000      6.000000
  0.500000  0.000000  0.000000      3.000000
  0.071429  0.071429  0.000000     12.000000
  0.142857  0.071429  0.000000     24.000000
  0.214286  0.071429  0.000000     24.000000
  0.285714  0.071429  0.000000     24.000000
  0.357143  0.071429  0.000000     24.000000
  0.428571  0.071429  0.000000     24.000000
  0.500000  0.071429  0.000000     12.000000
  0.142857  0.142857  0.000000     12.000000
  0.214286  0.142857  0.000000     24.000000
  0.285714  0.142857  0.000000     24.000000
  0.357143  0.142857  0.000000     24.000000
  0.428571  0.142857  0.000000     24.000000
  0.500000  0.142857  0.000000     12.000000
  0.214286  0.214286  0.000000     12.000000
  0.285714  0.214286  0.000000     24.000000
  0.357143  0.214286  0.000000     24.000000
  0.428571  0.214286  0.000000     24.000000
  0.500000  0.214286  0.000000     12.000000
  0.285714  0.285714  0.000000     12.000000
  0.357143  0.285714  0.000000     24.000000
  0.428571  0.285714  0.000000     24.000000
  0.500000  0.285714  0.000000     12.000000
  0.357143  0.357143  0.000000     12.000000
  0.428571  0.357143  0.000000     24.000000
  0.500000  0.357143  0.000000     12.000000
  0.428571  0.428571  0.000000     12.000000
  0.500000  0.428571  0.000000     12.000000
  0.500000  0.500000  0.000000      3.000000
  0.071429  0.071429  0.071429      8.000000
  0.142857  0.071429  0.071429     24.000000
  0.214286  0.071429  0.071429     24.000000
  0.285714  0.071429  0.071429     24.000000
  0.357143  0.071429  0.071429     24.000000
  0.428571  0.071429  0.071429     24.000000
  0.500000  0.071429  0.071429     12.000000
  0.142857  0.142857  0.071429     24.000000
  0.214286  0.142857  0.071429     48.000000
  0.285714  0.142857  0.071429     48.000000
  0.357143  0.142857  0.071429     48.000000
  0.428571  0.142857  0.071429     48.000000
  0.500000  0.142857  0.071429     24.000000
  0.214286  0.214286  0.071429     24.000000
  0.285714  0.214286  0.071429     48.000000
  0.357143  0.214286  0.071429     48.000000
  0.428571  0.214286  0.071429     48.000000
  0.500000  0.214286  0.071429     24.000000
  0.285714  0.285714  0.071429     24.000000
  0.357143  0.285714  0.071429     48.000000
  0.428571  0.285714  0.071429     48.000000
  0.500000  0.285714  0.071429     24.000000
  0.357143  0.357143  0.071429     24.000000
  0.428571  0.357143  0.071429     48.000000
  0.500000  0.357143  0.071429     24.000000
  0.428571  0.428571  0.071429     24.000000
  0.500000  0.428571  0.071429     24.000000
  0.500000  0.500000  0.071429      6.000000
  0.142857  0.142857  0.142857      8.000000
  0.214286  0.142857  0.142857     24.000000
  0.285714  0.142857  0.142857     24.000000
  0.357143  0.142857  0.142857     24.000000
  0.428571  0.142857  0.142857     24.000000
  0.500000  0.142857  0.142857     12.000000
  0.214286  0.214286  0.142857     24.000000
  0.285714  0.214286  0.142857     48.000000
  0.357143  0.214286  0.142857     48.000000
  0.428571  0.214286  0.142857     48.000000
  0.500000  0.214286  0.142857     24.000000
  0.285714  0.285714  0.142857     24.000000
  0.357143  0.285714  0.142857     48.000000
  0.428571  0.285714  0.142857     48.000000
  0.500000  0.285714  0.142857     24.000000
  0.357143  0.357143  0.142857     24.000000
  0.428571  0.357143  0.142857     48.000000
  0.500000  0.357143  0.142857     24.000000
  0.428571  0.428571  0.142857     24.000000
  0.500000  0.428571  0.142857     24.000000
  0.500000  0.500000  0.142857      6.000000
  0.214286  0.214286  0.214286      8.000000
  0.285714  0.214286  0.214286     24.000000
  0.357143  0.214286  0.214286     24.000000
  0.428571  0.214286  0.214286     24.000000
  0.500000  0.214286  0.214286     12.000000
  0.285714  0.285714  0.214286     24.000000
  0.357143  0.285714  0.214286     48.000000
  0.428571  0.285714  0.214286     48.000000
  0.500000  0.285714  0.214286     24.000000
  0.357143  0.357143  0.214286     24.000000
  0.428571  0.357143  0.214286     48.000000
  0.500000  0.357143  0.214286     24.000000
  0.428571  0.428571  0.214286     24.000000
  0.500000  0.428571  0.214286     24.000000
  0.500000  0.500000  0.214286      6.000000
  0.285714  0.285714  0.285714      8.000000
  0.357143  0.285714  0.285714     24.000000
  0.428571  0.285714  0.285714     24.000000
  0.500000  0.285714  0.285714     12.000000
  0.357143  0.357143  0.285714     24.000000
  0.428571  0.357143  0.285714     48.000000
  0.500000  0.357143  0.285714     24.000000
  0.428571  0.428571  0.285714     24.000000
  0.500000  0.428571  0.285714     24.000000
  0.500000  0.500000  0.285714      6.000000
  0.357143  0.357143  0.357143      8.000000
  0.428571  0.357143  0.357143     24.000000
  0.500000  0.357143  0.357143     12.000000
  0.428571  0.428571  0.357143     24.000000
  0.500000  0.428571  0.357143     24.000000
  0.500000  0.500000  0.357143      6.000000
  0.428571  0.428571  0.428571      8.000000
  0.500000  0.428571  0.428571     12.000000
  0.500000  0.500000  0.428571      6.000000
  0.500000  0.500000  0.500000      1.000000
 
 Following cartesian coordinates:
            Coordinates               Weight
  0.000000  0.000000  0.000000      1.000000
  0.018234  0.000000  0.000000      6.000000
  0.036468  0.000000  0.000000      6.000000
  0.054702  0.000000  0.000000      6.000000
  0.072937  0.000000  0.000000      6.000000
  0.091171  0.000000  0.000000      6.000000
  0.109405  0.000000  0.000000      6.000000
  0.127639  0.000000  0.000000      3.000000
  0.018234  0.018234  0.000000     12.000000
  0.036468  0.018234  0.000000     24.000000
  0.054702  0.018234  0.000000     24.000000
  0.072937  0.018234  0.000000     24.000000
  0.091171  0.018234  0.000000     24.000000
  0.109405  0.018234  0.000000     24.000000
  0.127639  0.018234  0.000000     12.000000
  0.036468  0.036468  0.000000     12.000000
  0.054702  0.036468  0.000000     24.000000
  0.072937  0.036468  0.000000     24.000000
  0.091171  0.036468  0.000000     24.000000
  0.109405  0.036468  0.000000     24.000000
  0.127639  0.036468  0.000000     12.000000
  0.054702  0.054702  0.000000     12.000000
  0.072937  0.054702  0.000000     24.000000
  0.091171  0.054702  0.000000     24.000000
  0.109405  0.054702  0.000000     24.000000
  0.127639  0.054702  0.000000     12.000000
  0.072937  0.072937  0.000000     12.000000
  0.091171  0.072937  0.000000     24.000000
  0.109405  0.072937  0.000000     24.000000
  0.127639  0.072937  0.000000     12.000000
  0.091171  0.091171  0.000000     12.000000
  0.109405  0.091171  0.000000     24.000000
  0.127639  0.091171  0.000000     12.000000
  0.109405  0.109405  0.000000     12.000000
  0.127639  0.109405  0.000000     12.000000
  0.127639  0.127639  0.000000      3.000000
  0.018234  0.018234  0.018234      8.000000
  0.036468  0.018234  0.018234     24.000000
  0.054702  0.018234  0.018234     24.000000
  0.072937  0.018234  0.018234     24.000000
  0.091171  0.018234  0.018234     24.000000
  0.109405  0.018234  0.018234     24.000000
  0.127639  0.018234  0.018234     12.000000
  0.036468  0.036468  0.018234     24.000000
  0.054702  0.036468  0.018234     48.000000
  0.072937  0.036468  0.018234     48.000000
  0.091171  0.036468  0.018234     48.000000
  0.109405  0.036468  0.018234     48.000000
  0.127639  0.036468  0.018234     24.000000
  0.054702  0.054702  0.018234     24.000000
  0.072937  0.054702  0.018234     48.000000
  0.091171  0.054702  0.018234     48.000000
  0.109405  0.054702  0.018234     48.000000
  0.127639  0.054702  0.018234     24.000000
  0.072937  0.072937  0.018234     24.000000
  0.091171  0.072937  0.018234     48.000000
  0.109405  0.072937  0.018234     48.000000
  0.127639  0.072937  0.018234     24.000000
  0.091171  0.091171  0.018234     24.000000
  0.109405  0.091171  0.018234     48.000000
  0.127639  0.091171  0.018234     24.000000
  0.109405  0.109405  0.018234     24.000000
  0.127639  0.109405  0.018234     24.000000
  0.127639  0.127639  0.018234      6.000000
  0.036468  0.036468  0.036468      8.000000
  0.054702  0.036468  0.036468     24.000000
  0.072937  0.036468  0.036468     24.000000
  0.091171  0.036468  0.036468     24.000000
  0.109405  0.036468  0.036468     24.000000
  0.127639  0.036468  0.036468     12.000000
  0.054702  0.054702  0.036468     24.000000
  0.072937  0.054702  0.036468     48.000000
  0.091171  0.054702  0.036468     48.000000
  0.109405  0.054702  0.036468     48.000000
  0.127639  0.054702  0.036468     24.000000
  0.072937  0.072937  0.036468     24.000000
  0.091171  0.072937  0.036468     48.000000
  0.109405  0.072937  0.036468     48.000000
  0.127639  0.072937  0.036468     24.000000
  0.091171  0.091171  0.036468     24.000000
  0.109405  0.091171  0.036468     48.000000
  0.127639  0.091171  0.036468     24.000000
  0.109405  0.109405  0.036468     24.000000
  0.127639  0.109405  0.036468     24.000000
  0.127639  0.127639  0.036468      6.000000
  0.054702  0.054702  0.054702      8.000000
  0.072937  0.054702  0.054702     24.000000
  0.091171  0.054702  0.054702     24.000000
  0.109405  0.054702  0.054702     24.000000
  0.127639  0.054702  0.054702     12.000000
  0.072937  0.072937  0.054702     24.000000
  0.091171  0.072937  0.054702     48.000000
  0.109405  0.072937  0.054702     48.000000
  0.127639  0.072937  0.054702     24.000000
  0.091171  0.091171  0.054702     24.000000
  0.109405  0.091171  0.054702     48.000000
  0.127639  0.091171  0.054702     24.000000
  0.109405  0.109405  0.054702     24.000000
  0.127639  0.109405  0.054702     24.000000
  0.127639  0.127639  0.054702      6.000000
  0.072937  0.072937  0.072937      8.000000
  0.091171  0.072937  0.072937     24.000000
  0.109405  0.072937  0.072937     24.000000
  0.127639  0.072937  0.072937     12.000000
  0.091171  0.091171  0.072937     24.000000
  0.109405  0.091171  0.072937     48.000000
  0.127639  0.091171  0.072937     24.000000
  0.109405  0.109405  0.072937     24.000000
  0.127639  0.109405  0.072937     24.000000
  0.127639  0.127639  0.072937      6.000000
  0.091171  0.091171  0.091171      8.000000
  0.109405  0.091171  0.091171     24.000000
  0.127639  0.091171  0.091171     12.000000
  0.109405  0.109405  0.091171     24.000000
  0.127639  0.109405  0.091171     24.000000
  0.127639  0.127639  0.091171      6.000000
  0.109405  0.109405  0.109405      8.000000
  0.127639  0.109405  0.109405     12.000000
  0.127639  0.127639  0.109405      6.000000
  0.127639  0.127639  0.127639      1.000000
 


--------------------------------------------------------------------------------------------------------




 Dimension of arrays:
   k-points           NKPTS =    120   k-points in BZ     NKDIM =    120   number of bands    NBANDS=     40
   number of dos      NEDOS =    301   number of ions     NIONS =      4
   non local maximal  LDIM  =      6   non local SUM 2l+1 LMDIM =     18
   total plane-waves  NPLWV =  27000
   max r-space proj   IRMAX =      1   max aug-charges    IRDMAX= 144038
   dimension x,y,z NGX =    30 NGY =   30 NGZ =   30
   dimension x,y,z NGXF=    60 NGYF=   60 NGZF=   60
   support grid    NGXF=   120 NGYF=  120 NGZF=  120
   ions per type =               4
   NGX,Y,Z   is equivalent  to a cutoff of  12.73, 12.73, 12.73 a.u.
   NGXF,Y,Z  is equivalent  to a cutoff of  25.46, 25.46, 25.46 a.u.

 SYSTEM =  pddmc                                   
 POSCAR =  Pd                                      

 Startparameter for this run:
   NWRITE =      2    write-flag & timer
   PREC   = accura    normal or accurate (medium, high low for compatibility)
   ISTART =      0    job   : 0-new  1-cont  2-samecut
   ICHARG =      2    charge: 1-file 2-atom 10-const
   ISPIN  =      2    spin polarized calculation?
   LNONCOLLINEAR =      F non collinear calculations
   LSORBIT =      F    spin-orbit coupling
   INIWAV =      1    electr: 0-lowe 1-rand  2-diag
   LASPH  =      T    aspherical Exc in radial PAW
 Electronic Relaxation 1
   ENCUT  =  520.0 eV  38.22 Ry    6.18 a.u.   7.28  7.28  7.28*2*pi/ulx,y,z
   ENINI  =  520.0     initial cutoff
   ENAUG  =  473.1 eV  augmentation charge cutoff
   NELM   =    200;   NELMIN=  5; NELMDL= -5     # of ELM steps 
   EDIFF  = 0.1E-05   stopping-criterion for ELM
   LREAL  =      F    real-space projection
   NLSPLINE    = F    spline interpolate recip. space projectors
   LCOMPAT=      F    compatible to vasp.4.4
   GGA_COMPAT  = T    GGA compatible to vasp.4.4-vasp.4.6
   LMAXPAW     = -100 max onsite density
   LMAXMIX     =    2 max onsite mixed and CHGCAR
   VOSKOWN=      0    Vosko Wilk Nusair interpolation
   ROPT   =    0.00000
 Ionic relaxation
   EDIFFG = -.1E-01   stopping-criterion for IOM
   NSW    =      0    number of steps for IOM
   NBLOCK =      1;   KBLOCK =      1    inner block; outer block 
   IBRION =     -1    ionic relax: 0-MD 1-quasi-New 2-CG
   NFREE  =      0    steps in history (QN), initial steepest desc. (CG)
   ISIF   =      0    stress and relaxation
   IWAVPR =     10    prediction:  0-non 1-charg 2-wave 3-comb
   ISYM   =      2    0-nonsym 1-usesym 2-fastsym
   LCORR  =      T    Harris-Foulkes like correction to forces

   POTIM  = 0.5000    time-step for ionic-motion
   TEIN   =    0.0    initial temperature
   TEBEG  =    0.0;   TEEND  =   0.0 temperature during run
   SMASS  =  -3.00    Nose mass-parameter (am)
   estimated Nose-frequenzy (Omega)   =  0.10E-29 period in steps = 0.13E+47 mass=  -0.351E-27a.u.
   SCALEE = 1.0000    scale energy and forces
   NPACO  =    256;   APACO  = 10.0  distance and # of slots for P.C.
   PSTRESS=    0.0 pullay stress

  Mass of Ions in am
   POMASS = 106.42
  Ionic Valenz
   ZVAL   =  16.00
  Atomic Wigner-Seitz radii
   RWIGS  =  -1.00
  virtual crystal weights 
   VCA    =   1.00
   NELECT =      64.0000    total number of electrons
   NUPDOWN=      -1.0000    fix difference up-down

 DOS related values:
   EMIN   =  10.00;   EMAX   =-10.00  energy-range for DOS
   EFERMI =   0.00;   METHOD = LEGACY      
   ISMEAR =     1;   SIGMA  =   0.10  broadening in eV -4-tet -1-fermi 0-gaus

 Electronic relaxation 2 (details)
   IALGO  =     38    algorithm
   LDIAG  =      T    sub-space diagonalisation (order eigenvalues)
   LSUBROT=      F    optimize rotation matrix (better conditioning)
   TURBO    =      0    0=normal 1=particle mesh
   IRESTART =      0    0=no restart 2=restart with 2 vectors
   NREBOOT  =      0    no. of reboots
   NMIN     =      0    reboot dimension
   EREF     =   0.00    reference energy to select bands
   IMIX   =      4    mixing-type and parameters
     AMIX     =   0.40;   BMIX     =  1.00
     AMIX_MAG =   1.60;   BMIX_MAG =  1.00
     AMIN     =   0.10
     WC   =   100.;   INIMIX=   1;  MIXPRE=   1;  MAXMIX= -45

 Intra band minimization:
   WEIMIN = 0.0000     energy-eigenvalue tresh-hold
   EBREAK =  0.62E-08  absolut break condition
   DEPER  =   0.30     relativ break condition  

   TIME   =   0.40     timestep for ELM

  volume/ion in A,a.u.               =      15.03       101.41
  Fermi-wavevector in a.u.,A,eV,Ry     =   1.671659  3.158978 38.020738  2.794445
  Thomas-Fermi vector in A             =   2.756943
 
 Write flags
   LWAVE        =      F    write WAVECAR
   LDOWNSAMPLE  =      F    k-point downsampling of WAVECAR
   LCHARG       =      F    write CHGCAR
   LVTOT        =      F    write LOCPOT, total local potential
   LVHAR        =      F    write LOCPOT, Hartree potential only
   WRT_POTENTIAL= false  ! write potential to hdf5 file
   LELF         =      F    write electronic localiz. function (ELF)
   LORBIT       =     11    0 simple, 1 ext, 2 COOP (PROOUT), +10 PAW based schemes


 Dipole corrections
   LMONO      =      F    monopole corrections only (constant potential shift)
   LDIPOL     =      F    correct potential (dipole corrections)
   IDIPOL     =      0    1-x, 2-y, 3-z, 4-all directions 
   EPSILON    =  1.0000000 bulk dielectric constant
   LVACPOTAV  =      F  vacuum potentials using an averaging scheme for the charge density
   VACPOTFLAT =  0.1000000 required flatness to determine vacuum potential
 Exchange correlation treatment:
   GGA     = PE    functional components
   XC_C    = 1    coefficients multiplying the functional components
   LIBXC   =     F    Libxc                    
   VOSKOWN =     0    Vosko Wilk Nusair interpolation
   LHFCALC =     F    Hartree Fock is set to
   LHFONE  =     F    Hartree Fock one center treatment
   AEXX    =    0.0000 exact exchange contribution

 Parameters of functionals:
   PE:
     No parameter
 
 Van der Waals corrections
   IVDW    =    12    specifies the selected vdW correction

 Linear response parameters
   LEPSILON=     F    determine dielectric tensor
   LRPA    =     F    only Hartree local field effects (RPA)
   LNABLA  =     F    use nabla operator in PAW spheres
   LVEL    =     F    velocity operator in full k-point grid
   CSHIFT  =0.1000    complex shift for real part using Kramers Kronig
   OMEGAMAX=  -1.0    maximum frequency
   DEG_THRESHOLD= 0.2000000E-02 threshold for treating states as degnerate
   RTIME   =   -0.100 relaxation time in fs
  (WPLASMAI=    0.000 imaginary part of plasma frequency in eV, 0.658/RTIME)
   DFIELD  = 0.0000000 0.0000000 0.0000000 field for delta impulse in time
 
  Optional k-point grid parameters
   LKPOINTS_OPT  =     F    use optional k-point grid
   KPOINTS_OPT_MODE=     1    mode for optional k-point grid
 
 Orbital magnetization related:
   ORBITALMAG=     F  switch on orbital magnetization
   LCHIMAG   =     F  perturbation theory with respect to B field
   DQ        =  0.001000  dq finite difference perturbation B field
   LLRAUG    =     F  two centre corrections for induced B field
   LBONE     =     F  B-component reconstruction in AE one-centre
   LVGVCALC  =     T  calculate vGv susceptibility
   LVGVAPPL  =     F  apply vGv susceptibility instead of pGv for G=0

 Random number generation:
   RANDOM_GENERATOR = DEFAULT
   PCG_SEED         = not used


--------------------------------------------------------------------------------------------------------


 Static calculation
 charge density and potential will be updated during run
 spin polarized calculation
 Variant of blocked Davidson
 Davidson routine will perform the subspace rotation
 perform sub-space diagonalisation
    after iterative eigenvector-optimisation
 modified Broyden-mixing scheme, WC =      100.0
 initial mixing is a Kerker type mixing with AMIX =  0.4000 and BMIX =      1.0000
 Hartree-type preconditioning will be used
 using additional bands             8
 reciprocal scheme for non local part
 use partial core corrections
 calculate Harris-corrections to forces 
   (improved forces if not selfconsistent)
 use gradient corrections 
 use of overlap-Matrix (Vanderbilt PP)
 Methfessel and Paxton  Order N= 1 SIGMA  =   0.10


--------------------------------------------------------------------------------------------------------


  energy-cutoff  :      520.00
  volume of cell :       60.11
      direct lattice vectors                 reciprocal lattice vectors
     3.917301575  0.000000000  0.000000000     0.255277767 -0.000000000  0.000000000
     0.000000000  3.917301575  0.000000000     0.000000000  0.255277767  0.000000000
     0.000000000  0.000000000  3.917301575    -0.000000000 -0.000000000  0.255277767

  length of vectors
     3.917301575  3.917301575  3.917301575     0.255277767  0.255277767  0.255277767


 
 k-points in units of 2pi/SCALE and weight: Automatic mesh                          
   0.00000000  0.00000000  0.00000000       0.000
   0.01823413  0.00000000  0.00000000       0.002
   0.03646825  0.00000000  0.00000000       0.002
   0.05470238  0.00000000  0.00000000       0.002
   0.07293650  0.00000000  0.00000000       0.002
   0.09117063  0.00000000  0.00000000       0.002
   0.10940476  0.00000000  0.00000000       0.002
   0.12763888  0.00000000  0.00000000       0.001
   0.01823413  0.01823413  0.00000000       0.004
   0.03646825  0.01823413  0.00000000       0.009
   0.05470238  0.01823413  0.00000000       0.009
   0.07293650  0.01823413  0.00000000       0.009
   0.09117063  0.01823413  0.00000000       0.009
   0.10940476  0.01823413  0.00000000       0.009
   0.12763888  0.01823413  0.00000000       0.004
   0.03646825  0.03646825  0.00000000       0.004
   0.05470238  0.03646825  0.00000000       0.009
   0.07293650  0.03646825  0.00000000       0.009
   0.09117063  0.03646825  0.00000000       0.009
   0.10940476  0.03646825  0.00000000       0.009
   0.12763888  0.03646825  0.00000000       0.004
   0.05470238  0.05470238  0.00000000       0.004
   0.07293650  0.05470238  0.00000000       0.009
   0.09117063  0.05470238  0.00000000       0.009
   0.10940476  0.05470238  0.00000000       0.009
   0.12763888  0.05470238  0.00000000       0.004
   0.07293650  0.07293650  0.00000000       0.004
   0.09117063  0.07293650  0.00000000       0.009
   0.10940476  0.07293650  0.00000000       0.009
   0.12763888  0.07293650  0.00000000       0.004
   0.09117063  0.09117063  0.00000000       0.004
   0.10940476  0.09117063  0.00000000       0.009
   0.12763888  0.09117063  0.00000000       0.004
   0.10940476  0.10940476  0.00000000       0.004
   0.12763888  0.10940476  0.00000000       0.004
   0.12763888  0.12763888  0.00000000       0.001
   0.01823413  0.01823413  0.01823413       0.003
   0.03646825  0.01823413  0.01823413       0.009
   0.05470238  0.01823413  0.01823413       0.009
   0.07293650  0.01823413  0.01823413       0.009
   0.09117063  0.01823413  0.01823413       0.009
   0.10940476  0.01823413  0.01823413       0.009
   0.12763888  0.01823413  0.01823413       0.004
   0.03646825  0.03646825  0.01823413       0.009
   0.05470238  0.03646825  0.01823413       0.017
   0.07293650  0.03646825  0.01823413       0.017
   0.09117063  0.03646825  0.01823413       0.017
   0.10940476  0.03646825  0.01823413       0.017
   0.12763888  0.03646825  0.01823413       0.009
   0.05470238  0.05470238  0.01823413       0.009
   0.07293650  0.05470238  0.01823413       0.017
   0.09117063  0.05470238  0.01823413       0.017
   0.10940476  0.05470238  0.01823413       0.017
   0.12763888  0.05470238  0.01823413       0.009
   0.07293650  0.07293650  0.01823413       0.009
   0.09117063  0.07293650  0.01823413       0.017
   0.10940476  0.07293650  0.01823413       0.017
   0.12763888  0.07293650  0.01823413       0.009
   0.09117063  0.09117063  0.01823413       0.009
   0.10940476  0.09117063  0.01823413       0.017
   0.12763888  0.09117063  0.01823413       0.009
   0.10940476  0.10940476  0.01823413       0.009
   0.12763888  0.10940476  0.01823413       0.009
   0.12763888  0.12763888  0.01823413       0.002
   0.03646825  0.03646825  0.03646825       0.003
   0.05470238  0.03646825  0.03646825       0.009
   0.07293650  0.03646825  0.03646825       0.009
   0.09117063  0.03646825  0.03646825       0.009
   0.10940476  0.03646825  0.03646825       0.009
   0.12763888  0.03646825  0.03646825       0.004
   0.05470238  0.05470238  0.03646825       0.009
   0.07293650  0.05470238  0.03646825       0.017
   0.09117063  0.05470238  0.03646825       0.017
   0.10940476  0.05470238  0.03646825       0.017
   0.12763888  0.05470238  0.03646825       0.009
   0.07293650  0.07293650  0.03646825       0.009
   0.09117063  0.07293650  0.03646825       0.017
   0.10940476  0.07293650  0.03646825       0.017
   0.12763888  0.07293650  0.03646825       0.009
   0.09117063  0.09117063  0.03646825       0.009
   0.10940476  0.09117063  0.03646825       0.017
   0.12763888  0.09117063  0.03646825       0.009
   0.10940476  0.10940476  0.03646825       0.009
   0.12763888  0.10940476  0.03646825       0.009
   0.12763888  0.12763888  0.03646825       0.002
   0.05470238  0.05470238  0.05470238       0.003
   0.07293650  0.05470238  0.05470238       0.009
   0.09117063  0.05470238  0.05470238       0.009
   0.10940476  0.05470238  0.05470238       0.009
   0.12763888  0.05470238  0.05470238       0.004
   0.07293650  0.07293650  0.05470238       0.009
   0.09117063  0.07293650  0.05470238       0.017
   0.10940476  0.07293650  0.05470238       0.017
   0.12763888  0.07293650  0.05470238       0.009
   0.09117063  0.09117063  0.05470238       0.009
   0.10940476  0.09117063  0.05470238       0.017
   0.12763888  0.09117063  0.05470238       0.009
   0.10940476  0.10940476  0.05470238       0.009
   0.12763888  0.10940476  0.05470238       0.009
   0.12763888  0.12763888  0.05470238       0.002
   0.07293650  0.07293650  0.07293650       0.003
   0.09117063  0.07293650  0.07293650       0.009
   0.10940476  0.07293650  0.07293650       0.009
   0.12763888  0.07293650  0.07293650       0.004
   0.09117063  0.09117063  0.07293650       0.009
   0.10940476  0.09117063  0.07293650       0.017
   0.12763888  0.09117063  0.07293650       0.009
   0.10940476  0.10940476  0.07293650       0.009
   0.12763888  0.10940476  0.07293650       0.009
   0.12763888  0.12763888  0.07293650       0.002
   0.09117063  0.09117063  0.09117063       0.003
   0.10940476  0.09117063  0.09117063       0.009
   0.12763888  0.09117063  0.09117063       0.004
   0.10940476  0.10940476  0.09117063       0.009
   0.12763888  0.10940476  0.09117063       0.009
   0.12763888  0.12763888  0.09117063       0.002
   0.10940476  0.10940476  0.10940476       0.003
   0.12763888  0.10940476  0.10940476       0.004
   0.12763888  0.12763888  0.10940476       0.002
   0.12763888  0.12763888  0.12763888       0.000
 
 k-points in reciprocal lattice and weights: Automatic mesh                          
   0.00000000  0.00000000  0.00000000       0.000
   0.07142857  0.00000000  0.00000000       0.002
   0.14285714  0.00000000  0.00000000       0.002
   0.21428571  0.00000000  0.00000000       0.002
   0.28571429  0.00000000  0.00000000       0.002
   0.35714286  0.00000000  0.00000000       0.002
   0.42857143  0.00000000  0.00000000       0.002
   0.50000000  0.00000000  0.00000000       0.001
   0.07142857  0.07142857  0.00000000       0.004
   0.14285714  0.07142857  0.00000000       0.009
   0.21428571  0.07142857  0.00000000       0.009
   0.28571429  0.07142857  0.00000000       0.009
   0.35714286  0.07142857  0.00000000       0.009
   0.42857143  0.07142857  0.00000000       0.009
   0.50000000  0.07142857  0.00000000       0.004
   0.14285714  0.14285714  0.00000000       0.004
   0.21428571  0.14285714  0.00000000       0.009
   0.28571429  0.14285714  0.00000000       0.009
   0.35714286  0.14285714  0.00000000       0.009
   0.42857143  0.14285714  0.00000000       0.009
   0.50000000  0.14285714  0.00000000       0.004
   0.21428571  0.21428571  0.00000000       0.004
   0.28571429  0.21428571  0.00000000       0.009
   0.35714286  0.21428571  0.00000000       0.009
   0.42857143  0.21428571  0.00000000       0.009
   0.50000000  0.21428571  0.00000000       0.004
   0.28571429  0.28571429  0.00000000       0.004
   0.35714286  0.28571429  0.00000000       0.009
   0.42857143  0.28571429  0.00000000       0.009
   0.50000000  0.28571429  0.00000000       0.004
   0.35714286  0.35714286  0.00000000       0.004
   0.42857143  0.35714286  0.00000000       0.009
   0.50000000  0.35714286  0.00000000       0.004
   0.42857143  0.42857143  0.00000000       0.004
   0.50000000  0.42857143  0.00000000       0.004
   0.50000000  0.50000000  0.00000000       0.001
   0.07142857  0.07142857  0.07142857       0.003
   0.14285714  0.07142857  0.07142857       0.009
   0.21428571  0.07142857  0.07142857       0.009
   0.28571429  0.07142857  0.07142857       0.009
   0.35714286  0.07142857  0.07142857       0.009
   0.42857143  0.07142857  0.07142857       0.009
   0.50000000  0.07142857  0.07142857       0.004
   0.14285714  0.14285714  0.07142857       0.009
   0.21428571  0.14285714  0.07142857       0.017
   0.28571429  0.14285714  0.07142857       0.017
   0.35714286  0.14285714  0.07142857       0.017
   0.42857143  0.14285714  0.07142857       0.017
   0.50000000  0.14285714  0.07142857       0.009
   0.21428571  0.21428571  0.07142857       0.009
   0.28571429  0.21428571  0.07142857       0.017
   0.35714286  0.21428571  0.07142857       0.017
   0.42857143  0.21428571  0.07142857       0.017
   0.50000000  0.21428571  0.07142857       0.009
   0.28571429  0.28571429  0.07142857       0.009
   0.35714286  0.28571429  0.07142857       0.017
   0.42857143  0.28571429  0.07142857       0.017
   0.50000000  0.28571429  0.07142857       0.009
   0.35714286  0.35714286  0.07142857       0.009
   0.42857143  0.35714286  0.07142857       0.017
   0.50000000  0.35714286  0.07142857       0.009
   0.42857143  0.42857143  0.07142857       0.009
   0.50000000  0.42857143  0.07142857       0.009
   0.50000000  0.50000000  0.07142857       0.002
   0.14285714  0.14285714  0.14285714       0.003
   0.21428571  0.14285714  0.14285714       0.009
   0.28571429  0.14285714  0.14285714       0.009
   0.35714286  0.14285714  0.14285714       0.009
   0.42857143  0.14285714  0.14285714       0.009
   0.50000000  0.14285714  0.14285714       0.004
   0.21428571  0.21428571  0.14285714       0.009
   0.28571429  0.21428571  0.14285714       0.017
   0.35714286  0.21428571  0.14285714       0.017
   0.42857143  0.21428571  0.14285714       0.017
   0.50000000  0.21428571  0.14285714       0.009
   0.28571429  0.28571429  0.14285714       0.009
   0.35714286  0.28571429  0.14285714       0.017
   0.42857143  0.28571429  0.14285714       0.017
   0.50000000  0.28571429  0.14285714       0.009
   0.35714286  0.35714286  0.14285714       0.009
   0.42857143  0.35714286  0.14285714       0.017
   0.50000000  0.35714286  0.14285714       0.009
   0.42857143  0.42857143  0.14285714       0.009
   0.50000000  0.42857143  0.14285714       0.009
   0.50000000  0.50000000  0.14285714       0.002
   0.21428571  0.21428571  0.21428571       0.003
   0.28571429  0.21428571  0.21428571       0.009
   0.35714286  0.21428571  0.21428571       0.009
   0.42857143  0.21428571  0.21428571       0.009
   0.50000000  0.21428571  0.21428571       0.004
   0.28571429  0.28571429  0.21428571       0.009
   0.35714286  0.28571429  0.21428571       0.017
   0.42857143  0.28571429  0.21428571       0.017
   0.50000000  0.28571429  0.21428571       0.009
   0.35714286  0.35714286  0.21428571       0.009
   0.42857143  0.35714286  0.21428571       0.017
   0.50000000  0.35714286  0.21428571       0.009
   0.42857143  0.42857143  0.21428571       0.009
   0.50000000  0.42857143  0.21428571       0.009
   0.50000000  0.50000000  0.21428571       0.002
   0.28571429  0.28571429  0.28571429       0.003
   0.35714286  0.28571429  0.28571429       0.009
   0.42857143  0.28571429  0.28571429       0.009
   0.50000000  0.28571429  0.28571429       0.004
   0.35714286  0.35714286  0.28571429       0.009
   0.42857143  0.35714286  0.28571429       0.017
   0.50000000  0.35714286  0.28571429       0.009
   0.42857143  0.42857143  0.28571429       0.009
   0.50000000  0.42857143  0.28571429       0.009
   0.50000000  0.50000000  0.28571429       0.002
   0.35714286  0.35714286  0.35714286       0.003
   0.42857143  0.35714286  0.35714286       0.009
   0.50000000  0.35714286  0.35714286       0.004
   0.42857143  0.42857143  0.35714286       0.009
   0.50000000  0.42857143  0.35714286       0.009
   0.50000000  0.50000000  0.35714286       0.002
   0.42857143  0.42857143  0.42857143       0.003
   0.50000000  0.42857143  0.42857143       0.004
   0.50000000  0.50000000  0.42857143       0.002
   0.50000000  0.50000000  0.50000000       0.000
 
 position of ions in fractional coordinates (direct lattice) 
   0.00000000  0.00000000  0.00000000
   0.00000000  0.50000000  0.50000000
   0.50000000  0.00000000  0.50000000
   0.50000000  0.50000000  0.00000000
 
 position of ions in cartesian coordinates  (Angst):
   0.00000000  0.00000000  0.00000000
   0.00000000  1.95865079  1.95865079
   1.95865079  0.00000000  1.95865079
   1.95865079  1.95865079  0.00000000
 


--------------------------------------------------------------------------------------------------------


 k-point     1 :   0.0000 0.0000 0.0000  plane waves:    1647
 k-point     2 :   0.0714 0.0000 0.0000  plane waves:    1623
 k-point     3 :   0.1429 0.0000 0.0000  plane waves:    1627
 k-point     4 :   0.2143 0.0000 0.0000  plane waves:    1623
 k-point     5 :   0.2857 0.0000 0.0000  plane waves:    1630
 k-point     6 :   0.3571 0.0000 0.0000  plane waves:    1614
 k-point     7 :   0.4286 0.0000 0.0000  plane waves:    1622
 k-point     8 :   0.5000 0.0000 0.0000  plane waves:    1622
 k-point     9 :   0.0714 0.0714 0.0000  plane waves:    1627
 k-point    10 :   0.1429 0.0714 0.0000  plane waves:    1628
 k-point    11 :   0.2143 0.0714 0.0000  plane waves:    1623
 k-point    12 :   0.2857 0.0714 0.0000  plane waves:    1621
 k-point    13 :   0.3571 0.0714 0.0000  plane waves:    1622
 k-point    14 :   0.4286 0.0714 0.0000  plane waves:    1624
 k-point    15 :   0.5000 0.0714 0.0000  plane waves:    1626
 k-point    16 :   0.1429 0.1429 0.0000  plane waves:    1623
 k-point    17 :   0.2143 0.1429 0.0000  plane waves:    1618
 k-point    18 :   0.2857 0.1429 0.0000  plane waves:    1610
 k-point    19 :   0.3571 0.1429 0.0000  plane waves:    1622
 k-point    20 :   0.4286 0.1429 0.0000  plane waves:    1616
 k-point    21 :   0.5000 0.1429 0.0000  plane waves:    1616
 k-point    22 :   0.2143 0.2143 0.0000  plane waves:    1616
 k-point    23 :   0.2857 0.2143 0.0000  plane waves:    1612
 k-point    24 :   0.3571 0.2143 0.0000  plane waves:    1621
 k-point    25 :   0.4286 0.2143 0.0000  plane waves:    1622
 k-point    26 :   0.5000 0.2143 0.0000  plane waves:    1618
 k-point    27 :   0.2857 0.2857 0.0000  plane waves:    1614
 k-point    28 :   0.3571 0.2857 0.0000  plane waves:    1613
 k-point    29 :   0.4286 0.2857 0.0000  plane waves:    1615
 k-point    30 :   0.5000 0.2857 0.0000  plane waves:    1624
 k-point    31 :   0.3571 0.3571 0.0000  plane waves:    1614
 k-point    32 :   0.4286 0.3571 0.0000  plane waves:    1618
 k-point    33 :   0.5000 0.3571 0.0000  plane waves:    1610
 k-point    34 :   0.4286 0.4286 0.0000  plane waves:    1624
 k-point    35 :   0.5000 0.4286 0.0000  plane waves:    1624
 k-point    36 :   0.5000 0.5000 0.0000  plane waves:    1628
 k-point    37 :   0.0714 0.0714 0.0714  plane waves:    1626
 k-point    38 :   0.1429 0.0714 0.0714  plane waves:    1634
 k-point    39 :   0.2143 0.0714 0.0714  plane waves:    1626
 k-point    40 :   0.2857 0.0714 0.0714  plane waves:    1617
 k-point    41 :   0.3571 0.0714 0.0714  plane waves:    1621
 k-point    42 :   0.4286 0.0714 0.0714  plane waves:    1621
 k-point    43 :   0.5000 0.0714 0.0714  plane waves:    1618
 k-point    44 :   0.1429 0.1429 0.0714  plane waves:    1634
 k-point    45 :   0.2143 0.1429 0.0714  plane waves:    1625
 k-point    46 :   0.2857 0.1429 0.0714  plane waves:    1621
 k-point    47 :   0.3571 0.1429 0.0714  plane waves:    1618
 k-point    48 :   0.4286 0.1429 0.0714  plane waves:    1611
 k-point    49 :   0.5000 0.1429 0.0714  plane waves:    1620
 k-point    50 :   0.2143 0.2143 0.0714  plane waves:    1623
 k-point    51 :   0.2857 0.2143 0.0714  plane waves:    1616
 k-point    52 :   0.3571 0.2143 0.0714  plane waves:    1621
 k-point    53 :   0.4286 0.2143 0.0714  plane waves:    1609
 k-point    54 :   0.5000 0.2143 0.0714  plane waves:    1606
 k-point    55 :   0.2857 0.2857 0.0714  plane waves:    1608
 k-point    56 :   0.3571 0.2857 0.0714  plane waves:    1611
 k-point    57 :   0.4286 0.2857 0.0714  plane waves:    1616
 k-point    58 :   0.5000 0.2857 0.0714  plane waves:    1616
 k-point    59 :   0.3571 0.3571 0.0714  plane waves:    1617
 k-point    60 :   0.4286 0.3571 0.0714  plane waves:    1623
 k-point    61 :   0.5000 0.3571 0.0714  plane waves:    1628
 k-point    62 :   0.4286 0.4286 0.0714  plane waves:    1624
 k-point    63 :   0.5000 0.4286 0.0714  plane waves:    1628
 k-point    64 :   0.5000 0.5000 0.0714  plane waves:    1624
 k-point    65 :   0.1429 0.1429 0.1429  plane waves:    1629
 k-point    66 :   0.2143 0.1429 0.1429  plane waves:    1626
 k-point    67 :   0.2857 0.1429 0.1429  plane waves:    1620
 k-point    68 :   0.3571 0.1429 0.1429  plane waves:    1617
 k-point    69 :   0.4286 0.1429 0.1429  plane waves:    1616
 k-point    70 :   0.5000 0.1429 0.1429  plane waves:    1612
 k-point    71 :   0.2143 0.2143 0.1429  plane waves:    1619
 k-point    72 :   0.2857 0.2143 0.1429  plane waves:    1618
 k-point    73 :   0.3571 0.2143 0.1429  plane waves:    1616
 k-point    74 :   0.4286 0.2143 0.1429  plane waves:    1613
 k-point    75 :   0.5000 0.2143 0.1429  plane waves:    1622
 k-point    76 :   0.2857 0.2857 0.1429  plane waves:    1611
 k-point    77 :   0.3571 0.2857 0.1429  plane waves:    1617
 k-point    78 :   0.4286 0.2857 0.1429  plane waves:    1619
 k-point    79 :   0.5000 0.2857 0.1429  plane waves:    1614
 k-point    80 :   0.3571 0.3571 0.1429  plane waves:    1623
 k-point    81 :   0.4286 0.3571 0.1429  plane waves:    1621
 k-point    82 :   0.5000 0.3571 0.1429  plane waves:    1618
 k-point    83 :   0.4286 0.4286 0.1429  plane waves:    1612
 k-point    84 :   0.5000 0.4286 0.1429  plane waves:    1616
 k-point    85 :   0.5000 0.5000 0.1429  plane waves:    1624
 k-point    86 :   0.2143 0.2143 0.2143  plane waves:    1622
 k-point    87 :   0.2857 0.2143 0.2143  plane waves:    1621
 k-point    88 :   0.3571 0.2143 0.2143  plane waves:    1609
 k-point    89 :   0.4286 0.2143 0.2143  plane waves:    1618
 k-point    90 :   0.5000 0.2143 0.2143  plane waves:    1614
 k-point    91 :   0.2857 0.2857 0.2143  plane waves:    1615
 k-point    92 :   0.3571 0.2857 0.2143  plane waves:    1620
 k-point    93 :   0.4286 0.2857 0.2143  plane waves:    1619
 k-point    94 :   0.5000 0.2857 0.2143  plane waves:    1614
 k-point    95 :   0.3571 0.3571 0.2143  plane waves:    1617
 k-point    96 :   0.4286 0.3571 0.2143  plane waves:    1617
 k-point    97 :   0.5000 0.3571 0.2143  plane waves:    1626
 k-point    98 :   0.4286 0.4286 0.2143  plane waves:    1620
 k-point    99 :   0.5000 0.4286 0.2143  plane waves:    1618
 k-point   100 :   0.5000 0.5000 0.2143  plane waves:    1616
 k-point   101 :   0.2857 0.2857 0.2857  plane waves:    1610
 k-point   102 :   0.3571 0.2857 0.2857  plane waves:    1620
 k-point   103 :   0.4286 0.2857 0.2857  plane waves:    1619
 k-point   104 :   0.5000 0.2857 0.2857  plane waves:    1622
 k-point   105 :   0.3571 0.3571 0.2857  plane waves:    1618
 k-point   106 :   0.4286 0.3571 0.2857  plane waves:    1615
 k-point   107 :   0.5000 0.3571 0.2857  plane waves:    1618
 k-point   108 :   0.4286 0.4286 0.2857  plane waves:    1616
 k-point   109 :   0.5000 0.4286 0.2857  plane waves:    1616
 k-point   110 :   0.5000 0.5000 0.2857  plane waves:    1604
 k-point   111 :   0.3571 0.3571 0.3571  plane waves:    1616
 k-point   112 :   0.4286 0.3571 0.3571  plane waves:    1618
 k-point   113 :   0.5000 0.3571 0.3571  plane waves:    1612
 k-point   114 :   0.4286 0.4286 0.3571  plane waves:    1618
 k-point   115 :   0.5000 0.4286 0.3571  plane waves:    1620
 k-point   116 :   0.5000 0.5000 0.3571  plane waves:    1616
 k-point   117 :   0.4286 0.4286 0.4286  plane waves:    1613
 k-point   118 :   0.5000 0.4286 0.4286  plane waves:    1614
 k-point   119 :   0.5000 0.5000 0.4286  plane waves:    1612
 k-point   120 :   0.5000 0.5000 0.5000  plane waves:    1640

 maximum and minimum number of plane-waves per node :      1647     1604

 maximum number of plane-waves:      1647
 maximum index in each direction: 
   IXMAX=    7   IYMAX=    7   IZMAX=    7
   IXMIN=   -7   IYMIN=   -7   IZMIN=   -7


 serial   3D FFT for wavefunctions
 parallel 3D FFT for charge:
    minimum data exchange during FFTs selected (reduces bandwidth)


 total amount of memory used by VASP MPI-rank0   139049. kBytes
=======================================================================

   base      :      30000. kBytes
   nonl-proj :      28582. kBytes
   fftplans  :       8118. kBytes
   grid      :       6177. kBytes
   one-center:        124. kBytes
   wavefun   :      66048. kBytes
 
     INWAV:  cpu time      0.0000: real time      0.0000
 Broyden mixing: mesh for mixing (old mesh)
   NGX = 15   NGY = 15   NGZ = 15
  (NGX  = 60   NGY  = 60   NGZ  = 60)
  gives a total of   3375 points

 initial charge density was supplied:
 charge density of overlapping atoms calculated
 number of electron      64.0000000 magnetization       4.0000000
 keeping initial charge density in first step


--------------------------------------------------------------------------------------------------------


 Maximum index for augmentation-charges         34825 (set IRDMAX)


--------------------------------------------------------------------------------------------------------


 First call to EWALD:  gamma=   0.452
 Maximum number of real-space cells 3x 3x 3
 Maximum number of reciprocal cells 3x 3x 3

    FEWALD:  cpu time      0.0004: real time      0.0004


--------------------------------------- Ionic step        1  -------------------------------------------




--------------------------------------- Iteration      1(   1)  ---------------------------------------


    POTLOK:  cpu time      0.0467: real time      0.0467
    SETDIJ:  cpu time      0.4583: real time      0.4809
     EDDAV:  cpu time      9.2174: real time      9.2195
       DOS:  cpu time      0.0016: real time      0.0016
    --------------------------------------------
      LOOP:  cpu time      9.7240: real time      9.7486

 eigenvalue-minimisations  : 19768
 total energy-change (2. order) : 0.7769198E+03  (-0.3994935E+04)
 number of electron      64.0000000 magnetization       4.0000000
 augmentation part       64.0000000 magnetization       4.0000000

 Free energy of the ion-electron system (eV)
  ---------------------------------------------------
  alpha Z        PSCENC =       542.73305656
  Ewald energy   TEWEN  =     -8629.09612564
  -Hartree energ DENC   =     -2225.92554515
  -exchange      EXHF   =         0.00000000
  -V(xc)+E(xc)   XCENC  =       331.53594691
  PAW double counting   =      9031.68406025    -8916.38598993
  entropy T*S    EENTRO =        -0.00020328
  eigenvalues    EBANDS =       156.18970816
  atomic energy  EATOM  =     10486.18486129
  Solvation  Ediel_sol  =         0.00000000
  ---------------------------------------------------
  free energy    TOTEN  =       776.91976917 eV

  energy without entropy =      776.91997245  energy(sigma->0) =      776.91983693


--------------------------------------------------------------------------------------------------------




--------------------------------------- Iteration      1(   2)  ---------------------------------------


     EDDAV:  cpu time      8.4631: real time      8.4634
       DOS:  cpu time      0.0020: real time      0.0020
    --------------------------------------------
      LOOP:  cpu time      8.4651: real time      8.4654

 eigenvalue-minimisations  : 20152
 total energy-change (2. order) :-0.7698191E+03  (-0.7422619E+03)
 number of electron      64.0000000 magnetization       4.0000000
 augmentation part       64.0000000 magnetization       4.0000000

 Free energy of the ion-electron system (eV)
  ---------------------------------------------------
  alpha Z        PSCENC =       542.73305656
  Ewald energy   TEWEN  =     -8629.09612564
  -Hartree energ DENC   =     -2225.92554515
  -exchange      EXHF   =         0.00000000
  -V(xc)+E(xc)   XCENC  =       331.53594691
  PAW double counting   =      9031.68406025    -8916.38598993
  entropy T*S    EENTRO =         0.00068492
  eigenvalues    EBANDS =      -613.63032828
  atomic energy  EATOM  =     10486.18486129
  Solvation  Ediel_sol  =         0.00000000
  ---------------------------------------------------
  free energy    TOTEN  =         7.10062092 eV

  energy without entropy =        7.09993601  energy(sigma->0) =        7.10039262


--------------------------------------------------------------------------------------------------------




--------------------------------------- Iteration      1(   3)  ---------------------------------------


     EDDAV:  cpu time      8.9147: real time      8.9155
       DOS:  cpu time      0.0018: real time      0.0018
    --------------------------------------------
      LOOP:  cpu time      8.9165: real time      8.9173

 eigenvalue-minimisations  : 21392
 total energy-change (2. order) :-0.2848165E+02  (-0.2784524E+02)
 number of electron      64.0000000 magnetization       4.0000000
 augmentation part       64.0000000 magnetization       4.0000000

 Free energy of the ion-electron system (eV)
  ---------------------------------------------------
  alpha Z        PSCENC =       542.73305656
  Ewald energy   TEWEN  =     -8629.09612564
  -Hartree energ DENC   =     -2225.92554515
  -exchange      EXHF   =         0.00000000
  -V(xc)+E(xc)   XCENC  =       331.53594691
  PAW double counting   =      9031.68406025    -8916.38598993
  entropy T*S    EENTRO =        -0.00023829
  eigenvalues    EBANDS =      -642.11105803
  atomic energy  EATOM  =     10486.18486129
  Solvation  Ediel_sol  =         0.00000000
  ---------------------------------------------------
  free energy    TOTEN  =       -21.38103204 eV

  energy without entropy =      -21.38079375  energy(sigma->0) =      -21.38095261


--------------------------------------------------------------------------------------------------------




--------------------------------------- Iteration      1(   4)  ---------------------------------------


     EDDAV:  cpu time      8.7759: real time      8.7764
       DOS:  cpu time      0.0016: real time      0.0016
    --------------------------------------------
      LOOP:  cpu time      8.7775: real time      8.7780

 eigenvalue-minimisations  : 20624
 total energy-change (2. order) :-0.3041680E+00  (-0.3041020E+00)
 number of electron      64.0000000 magnetization       4.0000000
 augmentation part       64.0000000 magnetization       4.0000000

 Free energy of the ion-electron system (eV)
  ---------------------------------------------------
  alpha Z        PSCENC =       542.73305656
  Ewald energy   TEWEN  =     -8629.09612564
  -Hartree energ DENC   =     -2225.92554515
  -exchange      EXHF   =         0.00000000
  -V(xc)+E(xc)   XCENC  =       331.53594691
  PAW double counting   =      9031.68406025    -8916.38598993
  entropy T*S    EENTRO =        -0.00022402
  eigenvalues    EBANDS =      -642.41524031
  atomic energy  EATOM  =     10486.18486129
  Solvation  Ediel_sol  =         0.00000000
  ---------------------------------------------------
  free energy    TOTEN  =       -21.68520005 eV

  energy without entropy =      -21.68497602  energy(sigma->0) =      -21.68512537


--------------------------------------------------------------------------------------------------------




--------------------------------------- Iteration      1(   5)  ---------------------------------------


     EDDAV:  cpu time      8.8246: real time      8.8249
       DOS:  cpu time      0.0017: real time      0.0017
    CHARGE:  cpu time      0.7682: real time      0.7682
    MIXING:  cpu time      0.0013: real time      0.0013
    --------------------------------------------
      LOOP:  cpu time      9.5959: real time      9.5961

 eigenvalue-minimisations  : 21376
 total energy-change (2. order) :-0.4972593E-02  (-0.4972545E-02)
 number of electron      64.0000003 magnetization       1.9568842
 augmentation part       29.8683083 magnetization       1.0879500

 Broyden mixing:
  rms(total) = 0.10733E+01    rms(broyden)= 0.10732E+01
  rms(prec ) = 0.18673E+01
  weight for this iteration     100.00

 Free energy of the ion-electron system (eV)
  ---------------------------------------------------
  alpha Z        PSCENC =       542.73305656
  Ewald energy   TEWEN  =     -8629.09612564
  -Hartree energ DENC   =     -2225.92554515
  -exchange      EXHF   =         0.00000000
  -V(xc)+E(xc)   XCENC  =       331.53594691
  PAW double counting   =      9031.68406025    -8916.38598993
  entropy T*S    EENTRO =        -0.00022361
  eigenvalues    EBANDS =      -642.42021331
  atomic energy  EATOM  =     10486.18486129
  Solvation  Ediel_sol  =         0.00000000
  ---------------------------------------------------
  free energy    TOTEN  =       -21.69017264 eV

  energy without entropy =      -21.68994903  energy(sigma->0) =      -21.69009810


--------------------------------------------------------------------------------------------------------




--------------------------------------- Iteration      1(   6)  ---------------------------------------


    POTLOK:  cpu time      0.0408: real time      0.0408
    SETDIJ:  cpu time      0.4142: real time      0.4142
     EDDAV:  cpu time      9.3873: real time      9.3895
       DOS:  cpu time      0.0017: real time      0.0017
    CHARGE:  cpu time      0.9127: real time      0.9132
    MIXING:  cpu time      0.0014: real time      0.0014
    --------------------------------------------
      LOOP:  cpu time     10.7581: real time     10.7608

 eigenvalue-minimisations  : 20696
 total energy-change (2. order) : 0.8610923E+00  (-0.3783551E+00)
 number of electron      64.0000003 magnetization       1.6465866
 augmentation part       30.7020362 magnetization       0.9917719

 Broyden mixing:
  rms(total) = 0.22649E+00    rms(broyden)= 0.22647E+00
  rms(prec ) = 0.27227E+00
  weight for this iteration     100.00

 eigenvalues of (default mixing * dielectric matrix)
  average eigenvalue GAMMA=   1.0119
  1.0119

 Free energy of the ion-electron system (eV)
  ---------------------------------------------------
  alpha Z        PSCENC =       542.73305656
  Ewald energy   TEWEN  =     -8629.09612564
  -Hartree energ DENC   =     -2156.84676133
  -exchange      EXHF   =         0.00000000
  -V(xc)+E(xc)   XCENC  =       328.31156102
  PAW double counting   =      9250.48863211    -9143.05809984
  entropy T*S    EENTRO =        -0.00219483
  eigenvalues    EBANDS =      -699.54400969
  atomic energy  EATOM  =     10486.18486129
  Solvation  Ediel_sol  =         0.00000000
  ---------------------------------------------------
  free energy    TOTEN  =       -20.82908034 eV

  energy without entropy =      -20.82688552  energy(sigma->0) =      -20.82834874


--------------------------------------------------------------------------------------------------------




--------------------------------------- Iteration      1(   7)  ---------------------------------------


    POTLOK:  cpu time      0.0402: real time      0.0403
    SETDIJ:  cpu time      0.4137: real time      0.4137
     EDDAV:  cpu time      8.4416: real time      8.4425
       DOS:  cpu time      0.0017: real time      0.0017
    CHARGE:  cpu time      0.7624: real time      0.7625
    MIXING:  cpu time      0.0013: real time      0.0013
    --------------------------------------------
      LOOP:  cpu time      9.6608: real time      9.6620

 eigenvalue-minimisations  : 20456
 total energy-change (2. order) : 0.1951919E-02  (-0.4019618E-02)
 number of electron      64.0000003 magnetization       1.4772789
 augmentation part       30.6788996 magnetization       0.9093060

 Broyden mixing:
  rms(total) = 0.14649E+00    rms(broyden)= 0.14649E+00
  rms(prec ) = 0.17460E+00
  weight for this iteration     100.00

 eigenvalues of (default mixing * dielectric matrix)
  average eigenvalue GAMMA=   0.9723
  1.2826  0.6619

 Free energy of the ion-electron system (eV)
  ---------------------------------------------------
  alpha Z        PSCENC =       542.73305656
  Ewald energy   TEWEN  =     -8629.09612564
  -Hartree energ DENC   =     -2156.43631443
  -exchange      EXHF   =         0.00000000
  -V(xc)+E(xc)   XCENC  =       328.27518280
  PAW double counting   =      9380.50784241    -9274.35019344
  entropy T*S    EENTRO =        -0.00263847
  eigenvalues    EBANDS =      -698.64279950
  atomic energy  EATOM  =     10486.18486129
  Solvation  Ediel_sol  =         0.00000000
  ---------------------------------------------------
  free energy    TOTEN  =       -20.82712843 eV

  energy without entropy =      -20.82448995  energy(sigma->0) =      -20.82624894


--------------------------------------------------------------------------------------------------------




--------------------------------------- Iteration      1(   8)  ---------------------------------------


    POTLOK:  cpu time      0.0408: real time      0.0409
    SETDIJ:  cpu time      0.4140: real time      0.4140
     EDDAV:  cpu time      8.6638: real time      8.6646
       DOS:  cpu time      0.0017: real time      0.0017
    CHARGE:  cpu time      0.7704: real time      0.7704
    MIXING:  cpu time      0.0014: real time      0.0014
    --------------------------------------------
      LOOP:  cpu time      9.8920: real time      9.8931

 eigenvalue-minimisations  : 21208
 total energy-change (2. order) : 0.2928333E-02  (-0.4303488E-03)
 number of electron      64.0000003 magnetization       1.3863914
 augmentation part       30.6804296 magnetization       0.8312720

 Broyden mixing:
  rms(total) = 0.81951E-01    rms(broyden)= 0.81950E-01
  rms(prec ) = 0.94846E-01
  weight for this iteration     100.00

 eigenvalues of (default mixing * dielectric matrix)
  average eigenvalue GAMMA=   1.2573
  2.2186  0.9465  0.6068

 Free energy of the ion-electron system (eV)
  ---------------------------------------------------
  alpha Z        PSCENC =       542.73305656
  Ewald energy   TEWEN  =     -8629.09612564
  -Hartree energ DENC   =     -2154.75896471
  -exchange      EXHF   =         0.00000000
  -V(xc)+E(xc)   XCENC  =       328.18624080
  PAW double counting   =      9478.33035637    -9373.05460399
  entropy T*S    EENTRO =        -0.00231057
  eigenvalues    EBANDS =      -699.34671019
  atomic energy  EATOM  =     10486.18486129
  Solvation  Ediel_sol  =         0.00000000
  ---------------------------------------------------
  free energy    TOTEN  =       -20.82420009 eV

  energy without entropy =      -20.82188952  energy(sigma->0) =      -20.82342990


--------------------------------------------------------------------------------------------------------




--------------------------------------- Iteration      1(   9)  ---------------------------------------


    POTLOK:  cpu time      0.0402: real time      0.0403
    SETDIJ:  cpu time      0.4176: real time      0.4176
     EDDAV:  cpu time     11.7889: real time     11.8236
       DOS:  cpu time      0.0017: real time      0.0017
    CHARGE:  cpu time      0.7720: real time      0.7720
    MIXING:  cpu time      0.0014: real time      0.0014
    --------------------------------------------
      LOOP:  cpu time     13.0219: real time     13.0567

 eigenvalue-minimisations  : 21440
 total energy-change (2. order) : 0.2642639E-03  (-0.1687239E-03)
 number of electron      64.0000003 magnetization       1.3973090
 augmentation part       30.6844035 magnetization       0.8688482

 Broyden mixing:
  rms(total) = 0.84091E-02    rms(broyden)= 0.84055E-02
  rms(prec ) = 0.93927E-02
  weight for this iteration     100.00

 eigenvalues of (default mixing * dielectric matrix)
  average eigenvalue GAMMA=   1.2359
  2.5048  1.0316  0.7825  0.6247

 Free energy of the ion-electron system (eV)
  ---------------------------------------------------
  alpha Z        PSCENC =       542.73305656
  Ewald energy   TEWEN  =     -8629.09612564
  -Hartree energ DENC   =     -2153.14344436
  -exchange      EXHF   =         0.00000000
  -V(xc)+E(xc)   XCENC  =       328.10864750
  PAW double counting   =      9574.04984443    -9469.51123237
  entropy T*S    EENTRO =        -0.00171621
  eigenvalues    EBANDS =      -700.14782703
  atomic energy  EATOM  =     10486.18486129
  Solvation  Ediel_sol  =         0.00000000
  ---------------------------------------------------
  free energy    TOTEN  =       -20.82393583 eV

  energy without entropy =      -20.82221962  energy(sigma->0) =      -20.82336376


--------------------------------------------------------------------------------------------------------




--------------------------------------- Iteration      1(  10)  ---------------------------------------


    POTLOK:  cpu time      0.0407: real time      0.0408
    SETDIJ:  cpu time      0.4164: real time      0.4164
     EDDAV:  cpu time     11.2809: real time     11.4010
       DOS:  cpu time      0.0018: real time      0.0018
    CHARGE:  cpu time      0.7687: real time      0.7687
    MIXING:  cpu time      0.0017: real time      0.0017
    --------------------------------------------
      LOOP:  cpu time     12.5101: real time     12.6303

 eigenvalue-minimisations  : 20808
 total energy-change (2. order) :-0.1339321E-03  (-0.1421737E-04)
 number of electron      64.0000003 magnetization       1.4006002
 augmentation part       30.6850152 magnetization       0.8727163

 Broyden mixing:
  rms(total) = 0.24768E-02    rms(broyden)= 0.24757E-02
  rms(prec ) = 0.39605E-02
  weight for this iteration     100.00

 eigenvalues of (default mixing * dielectric matrix)
  average eigenvalue GAMMA=   1.1809
  2.5344  1.1206  0.9120  0.6201  0.7172

 Free energy of the ion-electron system (eV)
  ---------------------------------------------------
  alpha Z        PSCENC =       542.73305656
  Ewald energy   TEWEN  =     -8629.09612564
  -Hartree energ DENC   =     -2153.20358441
  -exchange      EXHF   =         0.00000000
  -V(xc)+E(xc)   XCENC  =       328.11184705
  PAW double counting   =      9579.20801189    -9474.57139487
  entropy T*S    EENTRO =        -0.00166008
  eigenvalues    EBANDS =      -700.18908154
  atomic energy  EATOM  =     10486.18486129
  Solvation  Ediel_sol  =         0.00000000
  ---------------------------------------------------
  free energy    TOTEN  =       -20.82406976 eV

  energy without entropy =      -20.82240968  energy(sigma->0) =      -20.82351640


--------------------------------------------------------------------------------------------------------




--------------------------------------- Iteration      1(  11)  ---------------------------------------


    POTLOK:  cpu time      0.0421: real time      0.0422
    SETDIJ:  cpu time      0.4187: real time      0.4188
     EDDAV:  cpu time      8.1941: real time      8.1953
       DOS:  cpu time      0.0017: real time      0.0017
    CHARGE:  cpu time      0.7667: real time      0.7668
    MIXING:  cpu time      0.0017: real time      0.0017
    --------------------------------------------
      LOOP:  cpu time      9.4250: real time      9.4265

 eigenvalue-minimisations  : 19336
 total energy-change (2. order) :-0.3109273E-05  (-0.5504484E-06)
 number of electron      64.0000003 magnetization       1.4016564
 augmentation part       30.6849008 magnetization       0.8729422

 Broyden mixing:
  rms(total) = 0.12716E-02    rms(broyden)= 0.12715E-02
  rms(prec ) = 0.22033E-02
  weight for this iteration     100.00

 eigenvalues of (default mixing * dielectric matrix)
  average eigenvalue GAMMA=   1.2565
  2.5242  1.6779  0.9986  0.9986  0.6207  0.7187

 Free energy of the ion-electron system (eV)
  ---------------------------------------------------
  alpha Z        PSCENC =       542.73305656
  Ewald energy   TEWEN  =     -8629.09612564
  -Hartree energ DENC   =     -2153.31635185
  -exchange      EXHF   =         0.00000000
  -V(xc)+E(xc)   XCENC  =       328.11690458
  PAW double counting   =      9581.11519641    -9476.37893228
  entropy T*S    EENTRO =        -0.00166708
  eigenvalues    EBANDS =      -700.18101485
  atomic energy  EATOM  =     10486.18486129
  Solvation  Ediel_sol  =         0.00000000
  ---------------------------------------------------
  free energy    TOTEN  =       -20.82407287 eV

  energy without entropy =      -20.82240579  energy(sigma->0) =      -20.82351718


--------------------------------------------------------------------------------------------------------




--------------------------------------- Iteration      1(  12)  ---------------------------------------


    POTLOK:  cpu time      0.0410: real time      0.0410
    SETDIJ:  cpu time      0.4168: real time      0.4168
     EDDAV:  cpu time      6.8756: real time      6.8783
       DOS:  cpu time      0.0017: real time      0.0017
    CHARGE:  cpu time      0.7603: real time      0.7603
    MIXING:  cpu time      0.0015: real time      0.0015
    --------------------------------------------
      LOOP:  cpu time      8.0969: real time      8.0997

 eigenvalue-minimisations  : 14576
 total energy-change (2. order) : 0.7193804E-05  (-0.2040565E-06)
 number of electron      64.0000003 magnetization       1.4016308
 augmentation part       30.6847741 magnetization       0.8726799

 Broyden mixing:
  rms(total) = 0.27760E-03    rms(broyden)= 0.27760E-03
  rms(prec ) = 0.32469E-03
  weight for this iteration     100.00

 eigenvalues of (default mixing * dielectric matrix)
  average eigenvalue GAMMA=   1.3027
  2.5064  2.5064  1.0660  0.9639  0.6221  0.7272  0.7272

 Free energy of the ion-electron system (eV)
  ---------------------------------------------------
  alpha Z        PSCENC =       542.73305656
  Ewald energy   TEWEN  =     -8629.09612564
  -Hartree energ DENC   =     -2153.46550834
  -exchange      EXHF   =         0.00000000
  -V(xc)+E(xc)   XCENC  =       328.12359284
  PAW double counting   =      9582.94668012    -9478.08032005
  entropy T*S    EENTRO =        -0.00167775
  eigenvalues    EBANDS =      -700.16862471
  atomic energy  EATOM  =     10486.18486129
  Solvation  Ediel_sol  =         0.00000000
  ---------------------------------------------------
  free energy    TOTEN  =       -20.82406568 eV

  energy without entropy =      -20.82238792  energy(sigma->0) =      -20.82350643


--------------------------------------------------------------------------------------------------------




--------------------------------------- Iteration      1(  13)  ---------------------------------------


    POTLOK:  cpu time      0.0407: real time      0.0408
    SETDIJ:  cpu time      0.4271: real time      0.4271
     EDDAV:  cpu time      5.8678: real time      5.8688
       DOS:  cpu time      0.0017: real time      0.0017
    --------------------------------------------
      LOOP:  cpu time      6.3373: real time      6.3384

 eigenvalue-minimisations  : 10512
 total energy-change (2. order) : 0.5391262E-06  (-0.2325895E-07)
 number of electron      64.0000003 magnetization       1.4016308
 augmentation part       30.6847741 magnetization       0.8726799

 Free energy of the ion-electron system (eV)
  ---------------------------------------------------
  alpha Z        PSCENC =       542.73305656
  Ewald energy   TEWEN  =     -8629.09612564
  -Hartree energ DENC   =     -2153.47939214
  -exchange      EXHF   =         0.00000000
  -V(xc)+E(xc)   XCENC  =       328.12422898
  PAW double counting   =      9583.18065840    -9478.30130732
  entropy T*S    EENTRO =        -0.00167686
  eigenvalues    EBANDS =      -700.16836840
  atomic energy  EATOM  =     10486.18486129
  Solvation  Ediel_sol  =         0.00000000
  ---------------------------------------------------
  free energy    TOTEN  =       -20.82406514 eV

  energy without entropy =      -20.82238827  energy(sigma->0) =      -20.82350618


--------------------------------------------------------------------------------------------------------




 average (electrostatic) potential at core
  the test charge radii are     1.0504
  (the norm of the test charge is              1.0000)
       1 -74.6063       2 -74.6063       3 -74.6063       4 -74.6063
 
 
 
 E-fermi :   9.3356     XC(G=0): -13.2462     alpha+bet :-16.2254

 val. band max:        9.3351166003   @ k =   0.2143   0.0714   0.0714
 cond. band min:       9.3412619131   @ k =   0.4286   0.3571   0.2857
 fundamental gap:      0.0061453128
 Fermi energy:         9.3355567273

 spin component 1

 k-point     1 :       0.0000    0.0000    0.0000
  band No.  band energies     occupation 
      1     -40.8094      1.00000
      2     -40.8094      1.00000
      3     -40.8094      1.00000
      4     -40.5914      1.00000
      5     -40.5914      1.00000
      6     -40.5914      1.00000
      7     -40.5914      1.00000
      8     -40.5914      1.00000
      9     -40.5914      1.00000
     10     -40.4482      1.00000
     11     -40.4482      1.00000
     12     -40.4482      1.00000
     13       2.2912      1.00000
     14       3.9996      1.00000
     15       3.9996      1.00000
     16       3.9996      1.00000
     17       4.2386      1.00000
     18       4.2386      1.00000
     19       4.2386      1.00000
     20       6.4195      1.00000
     21       6.4195      1.00000
     22       6.4195      1.00000
     23       8.0057      1.00000
     24       8.0057      1.00000
     25       9.1389      1.00890
     26       9.1389      1.00890
     27       9.1389      1.00890
     28       9.4318     -0.02076
[...]
     38      17.0790      0.00000
     39      17.0790      0.00000
     40      17.0790      0.00000

 k-point   117 :       0.4286    0.4286    0.4286
  band No.  band energies     occupation 
      1     -40.5247      1.00000
      2     -40.5247      1.00000
      3     -40.5247      1.00000
      4     -40.5141      1.00000
      5     -40.2146      1.00000
      6     -40.2146      1.00000
      7     -40.2146      1.00000
      8     -40.2073      1.00000
      9     -40.2073      1.00000
     10     -40.2073      1.00000
     11     -40.2001      1.00000
     12     -40.2001      1.00000
     13       4.2786      1.00000
     14       4.3727      1.00000
     15       4.3727      1.00000
     16       4.3727      1.00000
     17       6.5283      1.00000
     18       6.5283      1.00000
     19       6.5283      1.00000
     20       6.6683      1.00000
     21       6.6683      1.00000
     22       6.7387      1.00000
     23       6.7387      1.00000
     24       6.7387      1.00000
     25       8.6297      1.00000
     26       8.6297      1.00000
     27       8.6297      1.00000
     28       9.3059      0.73881
     29       9.3059      0.73881
     30       9.4399     -0.02908
     31       9.4399     -0.02908
     32       9.4399     -0.02908
     33       9.5935     -0.00081
     34      11.1589     -0.00000
     35      11.1589     -0.00000
     36      11.1589     -0.00000
     37      16.6952      0.00000
     38      16.6952      0.00000
     39      16.6952      0.00000
     40      17.5967      0.00000

 k-point   118 :       0.5000    0.4286    0.4286
  band No.  band energies     occupation 
      1     -40.5282      1.00000
      2     -40.5282      1.00000
      3     -40.5229      1.00000
      4     -40.5229      1.00000
      5     -40.2128      1.00000
      6     -40.2128      1.00000
      7     -40.2056      1.00000
      8     -40.2056      1.00000
      9     -40.2038      1.00000
     10     -40.2038      1.00000
     11     -40.2037      1.00000
     12     -40.2037      1.00000
     13       4.2933      1.00000
     14       4.2933      1.00000
     15       4.3400      1.00000
     16       4.3400      1.00000
     17       6.5511      1.00000
     18       6.5511      1.00000
     19       6.6155      1.00000
     20       6.6155      1.00000
     21       6.6758      1.00000
     22       6.6758      1.00000
     23       6.7036      1.00000
     24       6.7036      1.00000
     25       8.8147      1.00000
     26       8.8147      1.00000
     27       9.0176      1.00003
     28       9.0176      1.00003
     29       9.4115      0.02097
     30       9.4115      0.02097
     31       9.4171      0.00609
     32       9.4171      0.00609
     33      10.3377     -0.00000
     34      10.3377     -0.00000
     35      11.0957     -0.00000
     36      11.0957     -0.00000
     37      16.5641      0.00000
     38      16.5641      0.00000
     39      17.0610      0.00000
     40      17.0610      0.00000

 k-point   119 :       0.5000    0.5000    0.4286
  band No.  band energies     occupation 
      1     -40.5291      1.00000
      2     -40.5291      1.00000
      3     -40.5291      1.00000
      4     -40.5291      1.00000
      5     -40.2065      1.00000
      6     -40.2065      1.00000
      7     -40.2065      1.00000
      8     -40.2065      1.00000
      9     -40.2028      1.00000
     10     -40.2028      1.00000
     11     -40.2028      1.00000
     12     -40.2028      1.00000
     13       4.2827      1.00000
     14       4.2827      1.00000
     15       4.2827      1.00000
     16       4.2827      1.00000
     17       6.6081      1.00000
     18       6.6081      1.00000
     19       6.6081      1.00000
     20       6.6081      1.00000
     21       6.6540      1.00000
     22       6.6540      1.00000
     23       6.6540      1.00000
     24       6.6540      1.00000
     25       9.1458      1.01097
     26       9.1458      1.01097
     27       9.1458      1.01097
     28       9.1458      1.01097
     29       9.3914      0.09965
     30       9.3914      0.09965
     31       9.3914      0.09965
     32       9.3914      0.09965
     33      10.5923     -0.00000
     34      10.5923     -0.00000
     35      10.5923     -0.00000
     36      10.5923     -0.00000
     37      16.6979      0.00000
     38      16.6979      0.00000
     39      16.6979      0.00000
     40      16.6979      0.00000

 k-point   120 :       0.5000    0.5000    0.5000
  band No.  band energies     occupation 
      1     -40.5328      1.00000
      2     -40.5328      1.00000
      3     -40.5328      1.00000
      4     -40.5328      1.00000
      5     -40.2028      1.00000
      6     -40.2028      1.00000
      7     -40.2028      1.00000
      8     -40.2028      1.00000
      9     -40.2028      1.00000
     10     -40.2028      1.00000
     11     -40.2028      1.00000
     12     -40.2028      1.00000
     13       4.2477      1.00000
     14       4.2477      1.00000
     15       4.2477      1.00000
     16       4.2477      1.00000
     17       6.6258      1.00000
     18       6.6258      1.00000
     19       6.6258      1.00000
     20       6.6258      1.00000
     21       6.6258      1.00000
     22       6.6258      1.00000
     23       6.6258      1.00000
     24       6.6258      1.00000
     25       9.4317     -0.02060
     26       9.4317     -0.02060
     27       9.4317     -0.02060
     28       9.4317     -0.02060
     29       9.4317     -0.02060
     30       9.4317     -0.02060
     31       9.4317     -0.02060
     32       9.4317     -0.02060
     33      10.3622     -0.00000
     34      10.3622     -0.00000
     35      10.3622     -0.00000
     36      10.3622     -0.00000
     37      16.5704      0.00000
     38      16.5704      0.00000
     39      16.5704      0.00000
     40      16.5704      0.00000


--------------------------------------------------------------------------------------------------------


 soft charge-density along one line, spin component            1
         0         1         2         3         4         5         6         7         8         9
 total charge-density along one line
 
 soft charge-density along one line, spin component            2
         0         1         2         3         4         5         6         7         8         9
 total charge-density along one line
 
 pseudopotential strength for first ion, spin component:            1
-37.331  -0.000  -0.000   8.297   0.000   0.000  -0.000   0.000
 -0.000 -37.331  -0.000   0.000   8.297   0.000   0.000  -0.000
 -0.000  -0.000 -37.331   0.000   0.000   8.297  -0.000   0.000
  8.297   0.000   0.000   7.861  -0.000  -0.000   0.000  -0.000
  0.000   8.297   0.000  -0.000   7.861  -0.000  -0.000   0.000
  0.000   0.000   8.297  -0.000  -0.000   7.861   0.000  -0.000
 -0.000   0.000  -0.000   0.000  -0.000   0.000  -2.388  -0.000
  0.000  -0.000   0.000  -0.000   0.000  -0.000  -0.000  -2.388
  0.000   0.000   0.000  -0.000  -0.000  -0.000   0.000   0.000
  0.000   0.000   0.000  -0.000  -0.000  -0.000  -0.000  -0.000
  0.000   0.000   0.000  -0.000  -0.000  -0.000  -0.000   0.000
 -0.000   0.000  -0.000   0.000  -0.000   0.000  -2.048  -0.000
  0.000  -0.000   0.000  -0.000   0.000  -0.000  -0.000  -2.048
  0.000   0.000   0.000  -0.000  -0.000  -0.000   0.000   0.000
  0.000   0.000   0.000  -0.000  -0.000  -0.000  -0.000  -0.000
  0.000   0.000   0.000  -0.000  -0.000  -0.000  -0.000   0.000
  0.000  -0.000   0.000   0.000  -0.000   0.000   0.000   0.000
  0.000  -0.000   0.000   0.000  -0.000   0.000   0.000   0.000
 pseudopotential strength for first ion, spin component:            2
-37.168  -0.000  -0.000   8.212   0.000   0.000  -0.000   0.000
 -0.000 -37.168  -0.000   0.000   8.212   0.000   0.000  -0.000
 -0.000  -0.000 -37.168   0.000   0.000   8.212  -0.000   0.000
  8.212   0.000   0.000   7.883  -0.000  -0.000   0.000  -0.000
  0.000   8.212   0.000  -0.000   7.883  -0.000  -0.000   0.000
  0.000   0.000   8.212  -0.000  -0.000   7.883   0.000  -0.000
 -0.000   0.000  -0.000   0.000  -0.000   0.000  -2.214  -0.000
  0.000  -0.000   0.000  -0.000   0.000  -0.000  -0.000  -2.214
  0.000   0.000   0.000  -0.000  -0.000  -0.000   0.000   0.000
  0.000  -0.000   0.000  -0.000  -0.000  -0.000  -0.000  -0.000
  0.000   0.000   0.000  -0.000  -0.000  -0.000  -0.000   0.000
 -0.000   0.000  -0.000   0.000  -0.000   0.000  -1.856  -0.000
  0.000  -0.000   0.000  -0.000   0.000  -0.000  -0.000  -1.856
  0.000   0.000   0.000  -0.000  -0.000  -0.000   0.000   0.000
  0.000  -0.000   0.000  -0.000  -0.000  -0.000  -0.000  -0.000
  0.000   0.000   0.000  -0.000  -0.000  -0.000  -0.000   0.000
  0.000  -0.000   0.000   0.000  -0.000   0.000   0.000   0.000
  0.000  -0.000   0.000   0.000  -0.000   0.000   0.000   0.000
 total augmentation occupancy for first ion, spin component:            1
  1.998   0.000   0.000  -0.014  -0.000  -0.000   0.000   0.000  -0.000   0.000  -0.000   0.000   0.000   0.000   0.000   0.000
  0.000   1.998   0.000  -0.000  -0.014  -0.000  -0.000  -0.000   0.000  -0.000   0.000  -0.000   0.000   0.000   0.000  -0.000
  0.000   0.000   1.998  -0.000  -0.000  -0.014   0.000   0.000  -0.000  -0.000  -0.000   0.000  -0.000  -0.000   0.000  -0.000
 -0.014  -0.000  -0.000   0.104   0.000   0.000   0.000  -0.000   0.000  -0.000  -0.000  -0.000   0.000  -0.000   0.000   0.000
 -0.000  -0.014  -0.000   0.000   0.104   0.000   0.000  -0.000   0.000   0.000   0.000   0.000  -0.000   0.000   0.000   0.000
 -0.000  -0.000  -0.014   0.000   0.000   0.104   0.000   0.000   0.000   0.000   0.000  -0.000  -0.000   0.000  -0.000  -0.000
  0.000  -0.000   0.000   0.000   0.000   0.000   2.755   0.000  -0.000   0.000   0.000  -0.737  -0.000   0.000  -0.000  -0.000
  0.000  -0.000   0.000  -0.000  -0.000   0.000   0.000   2.755   0.000   0.000  -0.000  -0.000  -0.737  -0.000  -0.000   0.000
  0.000  -0.000  -0.000   0.000  -0.000   0.000  -0.000   0.000   2.526   0.000   0.000   0.000  -0.000  -0.545  -0.000  -0.000
  0.000  -0.000  -0.000  -0.000   0.000   0.000   0.000   0.000   0.000   2.755   0.000  -0.000  -0.000  -0.000  -0.737  -0.000
  0.000   0.000   0.000   0.000  -0.000  -0.000   0.000  -0.000   0.000   0.000   2.526  -0.000   0.000  -0.000  -0.000  -0.545
  0.000  -0.000   0.000  -0.000   0.000  -0.000  -0.737  -0.000   0.000  -0.000  -0.000   0.476   0.000  -0.000   0.000   0.000
  0.000   0.000  -0.000   0.000  -0.000  -0.000  -0.000  -0.737  -0.000  -0.000   0.000   0.000   0.476   0.000   0.000  -0.000
  0.000   0.000  -0.000  -0.000   0.000  -0.000   0.000  -0.000  -0.545  -0.000  -0.000  -0.000   0.000   0.426   0.000   0.000
  0.000   0.000   0.000   0.000   0.000  -0.000  -0.000  -0.000  -0.000  -0.737  -0.000   0.000   0.000   0.000   0.476   0.000
  0.000  -0.000  -0.000  -0.000  -0.000   0.000  -0.000   0.000  -0.000  -0.000  -0.545   0.000  -0.000   0.000   0.000   0.426
  0.000   0.000   0.000  -0.000   0.000   0.000  -0.000   0.000   0.000   0.000  -0.000   0.000  -0.000  -0.000   0.000  -0.000
 -0.000  -0.000   0.000   0.000  -0.000  -0.000   0.000   0.000  -0.000  -0.000   0.000   0.000   0.000   0.000   0.000   0.000
 total augmentation occupancy for first ion, spin component:            2
  0.000   0.000   0.000  -0.000   0.000  -0.000   0.000   0.000   0.000   0.000  -0.000  -0.000   0.000  -0.000   0.000  -0.000
  0.000   0.000   0.000  -0.000  -0.000  -0.000   0.000  -0.000   0.000   0.000   0.000   0.000   0.000  -0.000   0.000   0.000
  0.000   0.000   0.000  -0.000  -0.000  -0.000   0.000  -0.000  -0.000  -0.000   0.000  -0.000   0.000   0.000  -0.000   0.000
 -0.000  -0.000  -0.000  -0.001  -0.000  -0.000  -0.000   0.000  -0.000  -0.000   0.000   0.000   0.000  -0.000   0.000   0.000
 -0.000  -0.000  -0.000  -0.000  -0.001  -0.000   0.000  -0.000   0.000  -0.000  -0.000   0.000  -0.000  -0.000  -0.000  -0.000
 -0.000  -0.000  -0.000  -0.000  -0.000  -0.001   0.000  -0.000   0.000   0.000   0.000   0.000   0.000  -0.000  -0.000  -0.000
  0.000   0.000   0.000  -0.000   0.000   0.000  -0.052  -0.000   0.000  -0.000  -0.000   0.055   0.000  -0.000   0.000   0.000
  0.000  -0.000  -0.000   0.000  -0.000  -0.000  -0.000  -0.052  -0.000  -0.000   0.000   0.000   0.055   0.000   0.000  -0.000
  0.000   0.000  -0.000  -0.000   0.000  -0.000   0.000  -0.000  -0.040  -0.000  -0.000  -0.000   0.000   0.035   0.000   0.000
  0.000   0.000  -0.000  -0.000  -0.000   0.000  -0.000  -0.000  -0.000  -0.052  -0.000   0.000   0.000   0.000   0.055   0.000
 -0.000  -0.000  -0.000  -0.000  -0.000   0.000  -0.000   0.000  -0.000  -0.000  -0.040   0.000  -0.000   0.000   0.000   0.035
 -0.000   0.000  -0.000   0.000   0.000   0.000   0.055   0.000  -0.000   0.000   0.000   0.035   0.000  -0.000   0.000   0.000
  0.000   0.000   0.000   0.000  -0.000   0.000   0.000   0.055   0.000   0.000  -0.000   0.000   0.035   0.000   0.000  -0.000
 -0.000  -0.000   0.000  -0.000  -0.000  -0.000  -0.000   0.000   0.035   0.000   0.000  -0.000   0.000   0.014   0.000   0.000
  0.000   0.000  -0.000   0.000  -0.000  -0.000   0.000   0.000   0.000   0.055   0.000   0.000   0.000   0.000   0.035   0.000
 -0.000  -0.000  -0.000   0.000  -0.000  -0.000   0.000  -0.000   0.000   0.000   0.035   0.000  -0.000   0.000  -0.000   0.014
 -0.000  -0.000   0.000   0.000   0.000   0.000  -0.000  -0.000  -0.000  -0.000   0.000  -0.000   0.000  -0.000   0.000   0.000
 -0.000   0.000  -0.000   0.000   0.000   0.000  -0.000   0.000  -0.000   0.000   0.000   0.000  -0.000  -0.000  -0.000  -0.000


------------------------ aborting loop because EDIFF is reached ----------------------------------------





 total charge

# of ion       s       p       d       tot
------------------------------------------
    1        0.316   6.173   7.976  14.465
    2        0.316   6.173   7.976  14.465
    3        0.316   6.173   7.976  14.465
    4        0.316   6.173   7.976  14.465
--------------------------------------------------
tot          1.263  24.693  31.903  57.859



 magnetization (x)

# of ion       s       p       d       tot
------------------------------------------
    1       -0.000  -0.002   0.362   0.359
    2       -0.000  -0.002   0.362   0.359
    3       -0.000  -0.002   0.362   0.359
    4       -0.000  -0.002   0.362   0.359
--------------------------------------------------
tot         -0.001  -0.010   1.448   1.438
 
    CHARGE:  cpu time      0.7579: real time      0.7579
    FORLOC:  cpu time      0.0008: real time      0.0008
    FORNL :  cpu time      1.2194: real time      1.2195
    FORCOR:  cpu time      0.4637: real time      0.4637
    FORHAR:  cpu time      0.0045: real time      0.0045
    MIXING:  cpu time      0.0015: real time      0.0015
    OFIELD:  cpu time      0.0000: real time      0.0000

 ---------------------------------------------------------------------------------------------

         DFTD3 V3.0 Rev 1        
 DF pbe       
 parameters
 k1-k3        =   16.0000    1.3333   -4.0000
 Edisp (eV)   -2.62093

 E6    (eV) :    -1.4629
 E8    (eV) :    -1.1581
 % E8        : 44.19
    FORVDW:  cpu time      0.0073: real time      0.0073

 VOLUME and BASIS-vectors are now :
 -----------------------------------------------------------------------------
  energy-cutoff  :      520.00
  volume of cell :       60.11
      direct lattice vectors                 reciprocal lattice vectors
     3.917301575  0.000000000  0.000000000     0.255277767 -0.000000000  0.000000000
     0.000000000  3.917301575  0.000000000     0.000000000  0.255277767  0.000000000
     0.000000000  0.000000000  3.917301575    -0.000000000 -0.000000000  0.255277767

  length of vectors
     3.917301575  3.917301575  3.917301575     0.255277767  0.255277767  0.255277767


 FORCES acting on ions
    electron-ion (+dipol)            ewald-force                    non-local-force                 convergence-correction
 -----------------------------------------------------------------------------------------------
   0.907E-14 -.186E-13 -.113E-12   -.366E-13 -.348E-13 0.417E-14   0.299E-24 0.414E-24 0.103E-24   -.197E-13 -.374E-13 -.521E-13
   0.503E-14 0.480E-12 0.390E-12   -.388E-13 0.552E-14 0.106E-13   0.284E-25 -.181E-24 0.310E-24   -.505E-15 0.284E-13 0.622E-13
   0.507E-12 -.152E-13 -.158E-11   0.424E-13 -.761E-14 0.104E-13   0.750E-24 -.905E-24 0.569E-24   -.570E-13 -.804E-14 0.809E-13
   0.513E-12 0.660E-11 -.466E-11   0.402E-13 0.327E-13 -.238E-13   0.294E-24 0.620E-24 -.517E-24   -.472E-13 0.188E-13 -.758E-13
 -----------------------------------------------------------------------------------------------
   0.103E-11 0.704E-11 -.596E-11   0.725E-14 -.417E-14 0.136E-14   0.137E-23 -.517E-25 0.465E-24   -.124E-12 0.183E-14 0.152E-13
 
 
 POSITION                                       TOTAL-FORCE (eV/Angst)
 -----------------------------------------------------------------------------------
      0.00000      0.00000      0.00000         0.000000     -0.000000     -0.000000
      0.00000      1.95865      1.95865        -0.000000      0.000000      0.000000
      1.95865      0.00000      1.95865         0.000000      0.000000     -0.000000
      1.95865      1.95865      0.00000        -0.000000     -0.000000      0.000000
 -----------------------------------------------------------------------------------
    total drift:                                0.000000      0.000000     -0.000000


--------------------------------------------------------------------------------------------------------



  FREE ENERGIE OF THE ION-ELECTRON SYSTEM (eV)
  ---------------------------------------------------
  free  energy   TOTEN  =       -23.44499043 eV

  energy  without entropy=      -23.44331357  energy(sigma->0) =      -23.44443148
 


--------------------------------------------------------------------------------------------------------


    POTLOK:  cpu time      0.4612: real time      0.4612


--------------------------------------------------------------------------------------------------------


     LOOP+:  cpu time    128.1098: real time    128.3018
    4ORBIT:  cpu time      0.0000: real time      0.0000



 total charge

# of ion       s       p       d       tot
------------------------------------------
    1        0.316   6.173   7.976  14.465
    2        0.316   6.173   7.976  14.465
    3        0.316   6.173   7.976  14.465
    4        0.316   6.173   7.976  14.465
--------------------------------------------------
tot          1.263  24.693  31.903  57.859



 magnetization (x)

# of ion       s       p       d       tot
------------------------------------------
    1       -0.000  -0.002   0.362   0.359
    2       -0.000  -0.002   0.362   0.359
    3       -0.000  -0.002   0.362   0.359
    4       -0.000  -0.002   0.362   0.359
--------------------------------------------------
tot         -0.001  -0.010   1.448   1.438
 

 total amount of memory used by VASP MPI-rank0   139049. kBytes
=======================================================================

   base      :      30000. kBytes
   nonl-proj :      28582. kBytes
   fftplans  :       8118. kBytes
   grid      :       6177. kBytes
   one-center:        124. kBytes
   wavefun   :      66048. kBytes
 
  
  
 General timing and accounting informations for this job:
 ========================================================
  
                  Total CPU time used (sec):      130.718
                            User time (sec):      125.822
                          System time (sec):        4.896
                         Elapsed time (sec):      132.632
  
                   Maximum memory used (kb):      439676.
                   Average memory used (kb):          N/A
  
                          Minor page faults:       516289
                          Major page faults:            0
                 Voluntary context switches:          369
