       N       E                     dE             d eps       ncg     rms          rms(c)
DAV:   1     0.589175723822E+03    0.58918E+03   -0.34265E+04  7416   0.172E+03
DAV:   2    -0.747437383643E+01   -0.59665E+03   -0.57469E+03  8352   0.491E+02
DAV:   3    -0.405641769796E+02   -0.33090E+02   -0.32735E+02  7916   0.120E+02
DAV:   4    -0.409892738838E+02   -0.42510E+00   -0.42446E+00  7940   0.147E+01
DAV:   5    -0.409939972655E+02   -0.47234E-02   -0.47229E-02  7724   0.156E+00    0.281E+01
DAV:   6    -0.356359495135E+02    0.53580E+01   -0.51601E+01  7720   0.655E+01    0.156E+01
DAV:   7    -0.321919932535E+02    0.34440E+01   -0.15693E+01  7564   0.360E+01    0.539E+00
DAV:   8    -0.321407398419E+02    0.51253E-01   -0.12742E+00  7624   0.663E+00    0.301E+00
DAV:   9    -0.321142677689E+02    0.26472E-01   -0.13035E-01  7832   0.325E+00    0.846E-01
DAV:  10    -0.321111734333E+02    0.30943E-02   -0.17892E-02  7664   0.128E+00    0.273E-01
DAV:  11    -0.321111940676E+02   -0.20634E-04   -0.20077E-03  7676   0.362E-01    0.118E-01
DAV:  12    -0.321111536601E+02    0.40407E-04   -0.21622E-04  7764   0.962E-02    0.522E-02
DAV:  13    -0.321111692835E+02   -0.15623E-04   -0.79794E-05  7660   0.530E-02    0.125E-02
DAV:  14    -0.321111708082E+02   -0.15247E-05   -0.27402E-06  6072   0.125E-02    0.483E-03
DAV:  15    -0.321111704686E+02    0.33961E-06   -0.75064E-07  4528   0.718E-03
   1 F= -.32111170E+02 E0= -.32108658E+02  d E =-.321112E+02  mag=    -0.3280
       N       E                     dE             d eps       ncg     rms          rms(c)
DAV:   1    -0.374119722803E+02   -0.53008E+01   -0.80124E+01  7620   0.783E+01    0.165E+01
DAV:   2    -0.346093468126E+02    0.28026E+01   -0.27477E+01  7520   0.493E+01    0.123E+01
DAV:   3    -0.321848568125E+02    0.24245E+01   -0.45476E+00  7540   0.206E+01    0.289E+00
DAV:   4    -0.321241164969E+02    0.60740E-01   -0.14565E+00  7444   0.724E+00    0.117E+00
DAV:   5    -0.321104984100E+02    0.13618E-01   -0.78356E-02  7716   0.183E+00    0.538E-01
DAV:   6    -0.321106152093E+02   -0.11680E-03   -0.13989E-02  7796   0.808E-01    0.259E-01
DAV:   7    -0.321102287053E+02    0.38650E-03   -0.24251E-03  7560   0.301E-01    0.617E-02
DAV:   8    -0.321102236041E+02    0.51012E-05   -0.42291E-04  7548   0.139E-01    0.362E-02
DAV:   9    -0.321102265763E+02   -0.29722E-05   -0.22115E-05  7672   0.335E-02    0.179E-02
DAV:  10    -0.321102241007E+02    0.24755E-05   -0.19212E-05  7780   0.303E-02    0.432E-03
DAV:  11    -0.321102240866E+02    0.14153E-07   -0.43262E-07  3932   0.582E-03
   2 F= -.32110224E+02 E0= -.32107445E+02  d E =0.946382E-03  mag=    -0.7611
       N       E                     dE             d eps       ncg     rms          rms(c)
DAV:   1    -0.334822690769E+02   -0.13720E+01   -0.19965E+01  7608   0.382E+01    0.821E+00
DAV:   2    -0.325707153569E+02    0.91155E+00   -0.53622E+00  7540   0.233E+01    0.488E+00
DAV:   3    -0.322020600976E+02    0.36866E+00   -0.94199E-01  7724   0.969E+00    0.157E+00
DAV:   4    -0.321679193944E+02    0.34141E-01   -0.27483E-01  7452   0.370E+00    0.493E-01
DAV:   5    -0.321676252958E+02    0.29410E-03   -0.15924E-02  7776   0.854E-01    0.266E-01
DAV:   6    -0.321678521504E+02   -0.22685E-03   -0.17907E-03  7872   0.283E-01    0.908E-02
DAV:   7    -0.321678890032E+02   -0.36853E-04   -0.43661E-04  7564   0.128E-01    0.295E-02
DAV:   8    -0.321678924231E+02   -0.34199E-05   -0.10850E-05  7776   0.275E-02    0.148E-02
DAV:   9    -0.321678919471E+02    0.47604E-06   -0.35856E-06  6972   0.129E-02
   3 F= -.32167892E+02 E0= -.32164886E+02  d E =-.567215E-01  mag=    -0.5289
       N       E                     dE             d eps       ncg     rms          rms(c)
DAV:   1    -0.321679038728E+02   -0.11450E-04   -0.18102E-04  7684   0.115E-01    0.245E-02
DAV:   2    -0.321678951535E+02    0.87193E-05   -0.48407E-05  7568   0.713E-02    0.154E-02
DAV:   3    -0.321678924417E+02    0.27119E-05   -0.75156E-06  6556   0.292E-02    0.454E-03
DAV:   4    -0.321678923850E+02    0.56632E-07   -0.26143E-06  4840   0.106E-02    0.152E-03
DAV:   5    -0.321678925817E+02   -0.19672E-06   -0.16124E-07  3648   0.283E-03
   4 F= -.32167893E+02 E0= -.32164887E+02  d E =-.567221E-01  mag=    -0.5271
       N       E                     dE             d eps       ncg     rms          rms(c)
DAV:   1    -0.321678938933E+02   -0.15083E-05   -0.15866E-05  7600   0.344E-02    0.739E-03
DAV:   2    -0.321678927308E+02    0.11625E-05   -0.41823E-06  5800   0.208E-02    0.452E-03
DAV:   3    -0.321678926946E+02    0.36222E-07   -0.65513E-07  3636   0.874E-03    0.143E-03
DAV:   4    -0.321678927348E+02   -0.40210E-07   -0.34361E-07  3628   0.391E-03    0.531E-04
DAV:   5    -0.321678927867E+02   -0.51910E-07   -0.24763E-08  3628   0.112E-03
   5 F= -.32167893E+02 E0= -.32164887E+02  d E =-.567223E-01  mag=    -0.5268
       N       E                     dE             d eps       ncg     rms          rms(c)
DAV:   1    -0.321691806535E+02   -0.12879E-02   -0.12790E-01  7200   0.235E+00    0.242E-01
DAV:   2    -0.321685184242E+02    0.66223E-03   -0.58852E-03  7684   0.665E-01    0.147E-01
DAV:   3    -0.321682085077E+02    0.30992E-03   -0.67139E-04  7740   0.276E-01    0.666E-02
DAV:   4    -0.321681286620E+02    0.79846E-04   -0.30878E-04  7532   0.124E-01    0.217E-02
DAV:   5    -0.321681273679E+02    0.12941E-05   -0.29545E-05  7644   0.345E-02    0.118E-02
DAV:   6    -0.321681268175E+02    0.55041E-06   -0.26090E-06  5944   0.133E-02
   6 F= -.32168127E+02 E0= -.32165094E+02  d E =-.234031E-03  mag=    -0.5181
