       N       E                     dE             d eps       ncg     rms          rms(c)
DAV:   1     0.777268135354E+03    0.77727E+03   -0.40015E+04  5784   0.194E+03
DAV:   2     0.714044900222E+01   -0.77013E+03   -0.74172E+03  5936   0.573E+02
DAV:   3    -0.213921235395E+02   -0.28533E+02   -0.27957E+02  6240   0.116E+02
DAV:   4    -0.216960956196E+02   -0.30397E+00   -0.30392E+00  6040   0.127E+01
DAV:   5    -0.217011307537E+02   -0.50351E-02   -0.50351E-02  6200   0.159E+00    0.107E+01
DAV:   6    -0.208280153271E+02    0.87312E+00   -0.37303E+00  6016   0.137E+01    0.230E+00
DAV:   7    -0.208309448639E+02   -0.29295E-02   -0.37875E-02  5888   0.145E+00    0.151E+00
DAV:   8    -0.208300774365E+02    0.86743E-03   -0.51747E-03  6144   0.574E-01    0.841E-01
DAV:   9    -0.208304390381E+02   -0.36160E-03   -0.22949E-03  5944   0.410E-01    0.993E-02
DAV:  10    -0.208306190016E+02   -0.17996E-03   -0.26846E-04  6296   0.127E-01    0.458E-02
DAV:  11    -0.208306291770E+02   -0.10175E-04   -0.18476E-05  6024   0.282E-02    0.306E-02
DAV:  12    -0.208306225299E+02    0.66470E-05   -0.10821E-05  5232   0.196E-02    0.988E-03
DAV:  13    -0.208306230166E+02   -0.48673E-06   -0.18668E-06  3704   0.996E-03
   1 F= -.23451548E+02 E0= -.23451846E+02  d E =0.893243E-03  mag=     0.9972
