       N       E                     dE             d eps       ncg     rms          rms(c)
DAV:   1     0.126739308708E+05    0.12674E+05   -0.78829E+05 19268   0.147E+03
DAV:   2     0.274752300787E+03   -0.12399E+05   -0.11967E+05 18922   0.408E+02
DAV:   3    -0.608426085018E+03   -0.88318E+03   -0.84951E+03 18736   0.103E+02
DAV:   4    -0.634090633692E+03   -0.25665E+02   -0.25471E+02 18552   0.176E+01
DAV:   5    -0.634565249637E+03   -0.47462E+00   -0.47407E+00 18504   0.251E+00    0.862E+01
DAV:   6    -0.787415150877E+03   -0.15285E+03   -0.59510E+02 18167   0.526E+01    0.146E+02
DAV:   7    -0.115263007666E+04   -0.36521E+03   -0.44419E+02 20351   0.547E+01    0.155E+02
DAV:   8    -0.678697281494E+03    0.47393E+03   -0.90422E+02 21395   0.455E+01    0.858E+01
DAV:   9    -0.545405624710E+03    0.13329E+03   -0.35863E+02 18896   0.283E+01    0.540E+01
DAV:  10    -0.518414927576E+03    0.26991E+02   -0.79108E+01 18504   0.153E+01    0.419E+01
DAV:  11    -0.503942689951E+03    0.14472E+02   -0.19171E+01 17992   0.894E+00    0.361E+01
DAV:  12    -0.485715269154E+03    0.18227E+02   -0.24269E+01 17784   0.105E+01    0.275E+01
DAV:  13    -0.489387896272E+03   -0.36726E+01   -0.61067E+00 17576   0.533E+00    0.225E+01
DAV:  14    -0.504505702002E+03   -0.15118E+02   -0.11929E+01 17872   0.594E+00    0.200E+01
DAV:  15    -0.517789353633E+03   -0.13284E+02   -0.23783E+01 17992   0.794E+00    0.170E+01
DAV:  16    -0.517109198736E+03    0.68015E+00   -0.10541E+01 18432   0.452E+00    0.147E+01
DAV:  17    -0.516868618054E+03    0.24058E+00   -0.57554E+00 18184   0.429E+00    0.167E+01
DAV:  18    -0.516020135315E+03    0.84848E+00   -0.14376E+00 17752   0.246E+00    0.160E+01
DAV:  19    -0.521154097950E+03   -0.51340E+01   -0.19417E+00 17588   0.202E+00    0.151E+01
DAV:  20    -0.529128885643E+03   -0.79748E+01   -0.56277E+00 17444   0.314E+00    0.188E+01
DAV:  21    -0.534111722498E+03   -0.49828E+01   -0.88829E+00 17572   0.238E+00    0.165E+01
DAV:  22    -0.538382170572E+03   -0.42704E+01   -0.68771E+00 17602   0.240E+00    0.101E+01
DAV:  23    -0.539615473652E+03   -0.12333E+01   -0.71374E-01 17546   0.139E+00    0.814E+00
DAV:  24    -0.540774510923E+03   -0.11590E+01   -0.19059E-01 17308   0.912E-01    0.722E+00
DAV:  25    -0.545645298089E+03   -0.48708E+01   -0.20927E+00 17356   0.192E+00    0.674E+00
DAV:  26    -0.550335267094E+03   -0.46900E+01   -0.16622E+00 17351   0.174E+00    0.541E+00
DAV:  27    -0.554463154708E+03   -0.41279E+01   -0.11668E+00 17292   0.142E+00    0.401E+00
DAV:  28    -0.560256024234E+03   -0.57929E+01   -0.15715E+00 17649   0.123E+00    0.323E+00
DAV:  29    -0.565617698448E+03   -0.53617E+01   -0.15176E+00 17607   0.115E+00    0.267E+00
DAV:  30    -0.569724559597E+03   -0.41069E+01   -0.12785E+00 17654   0.109E+00    0.204E+00
DAV:  31    -0.571600618985E+03   -0.18761E+01   -0.52433E-01 17784   0.831E-01    0.174E+00
DAV:  32    -0.573303808805E+03   -0.17032E+01   -0.51892E-01 17762   0.691E-01    0.142E+00
DAV:  33    -0.574655375686E+03   -0.13516E+01   -0.36542E-01 17477   0.645E-01    0.146E+00
DAV:  34    -0.575511875601E+03   -0.85650E+00   -0.18261E-01 17549   0.506E-01    0.118E+00
DAV:  35    -0.575910458833E+03   -0.39858E+00   -0.48513E-02 17512   0.379E-01    0.995E-01
DAV:  36    -0.576083795207E+03   -0.17334E+00   -0.20466E-02 17546   0.251E-01    0.744E-01
DAV:  37    -0.576401755016E+03   -0.31796E+00   -0.47186E-02 17335   0.274E-01    0.683E-01
DAV:  38    -0.576519639553E+03   -0.11788E+00   -0.20219E-02 17405   0.243E-01    0.573E-01
DAV:  39    -0.576554339918E+03   -0.34700E-01   -0.10720E-02 17498   0.214E-01    0.402E-01
DAV:  40    -0.576606390184E+03   -0.52050E-01   -0.62455E-03 17327   0.193E-01    0.316E-01
DAV:  41    -0.576692867213E+03   -0.86477E-01   -0.37268E-03 17463   0.128E-01    0.208E-01
DAV:  42    -0.576806677260E+03   -0.11381E+00   -0.59178E-03 17157   0.185E-01    0.406E-01
DAV:  43    -0.576855840046E+03   -0.49163E-01   -0.47880E-03 17460   0.165E-01    0.189E-01
DAV:  44    -0.576921726751E+03   -0.65887E-01   -0.11976E-03 17356   0.711E-02    0.188E-01
DAV:  45    -0.576952141877E+03   -0.30415E-01   -0.20587E-03 17607   0.105E-01    0.145E-01
DAV:  46    -0.576966079910E+03   -0.13938E-01   -0.28691E-04 17476   0.315E-02    0.121E-01
DAV:  47    -0.576969771320E+03   -0.36914E-02   -0.70755E-04 18282   0.679E-02    0.792E-02
DAV:  48    -0.576973803317E+03   -0.40320E-02   -0.25430E-04 16980   0.350E-02    0.387E-02
DAV:  49    -0.576977402469E+03   -0.35992E-02   -0.61002E-05 16666   0.136E-02    0.166E-02
DAV:  50    -0.576979302747E+03   -0.19003E-02   -0.23724E-05 15384   0.123E-02    0.193E-02
DAV:  51    -0.576980550778E+03   -0.12480E-02   -0.13975E-05 14941   0.946E-03    0.302E-02
DAV:  52    -0.576981681275E+03   -0.11305E-02   -0.78334E-06 15096   0.489E-03    0.293E-02
DAV:  53    -0.576982572300E+03   -0.89102E-03   -0.64179E-06 13530   0.499E-03    0.223E-02
DAV:  54    -0.576983286840E+03   -0.71454E-03   -0.68345E-06 13351   0.467E-03    0.131E-02
DAV:  55    -0.576983522844E+03   -0.23600E-03   -0.29489E-06 12369   0.453E-03    0.539E-03
DAV:  56    -0.576983656615E+03   -0.13377E-03   -0.21902E-06 11720   0.414E-03    0.853E-03
DAV:  57    -0.576983803173E+03   -0.14656E-03   -0.23711E-06 12266   0.322E-03    0.304E-03
DAV:  58    -0.576983937684E+03   -0.13451E-03   -0.15380E-06 12880   0.180E-03    0.326E-03
DAV:  59    -0.576984050079E+03   -0.11240E-03   -0.27523E-06 12143   0.397E-03    0.119E-02
DAV:  60    -0.576984077794E+03   -0.27715E-04   -0.71925E-07 11352   0.151E-03    0.145E-02
DAV:  61    -0.576984075398E+03    0.23951E-05   -0.31692E-07 10815   0.146E-03    0.111E-02
DAV:  62    -0.576984083357E+03   -0.79588E-05   -0.35595E-07 10768   0.156E-03    0.680E-03
DAV:  63    -0.576984098916E+03   -0.15559E-04   -0.50333E-07 10956   0.188E-03    0.210E-03
DAV:  64    -0.576984108246E+03   -0.93295E-05   -0.16035E-07 10832   0.741E-04    0.115E-03
DAV:  65    -0.576984111725E+03   -0.34792E-05   -0.40184E-08 10832   0.452E-04    0.516E-04
DAV:  66    -0.576984112699E+03   -0.97370E-06   -0.20258E-08 10151   0.346E-04
   1 F= -.60752776E+03 E0= -.60749853E+03  d E =-.607528E+03  mag=    17.5983
       N       E                     dE             d eps       ncg     rms          rms(c)
DAV:   1    -0.572987085817E+03    0.39970E+01   -0.35071E+02 21629   0.416E+01    0.483E+00
DAV:   2    -0.578913848055E+03   -0.59268E+01   -0.55422E+01 17220   0.867E+00    0.109E+01
DAV:   3    -0.579275416373E+03   -0.36157E+00   -0.53638E+00 17709   0.470E+00    0.113E+01
DAV:   4    -0.577960636046E+03    0.13148E+01   -0.42581E+00 17775   0.329E+00    0.344E+00
DAV:   5    -0.577729334325E+03    0.23130E+00   -0.41230E-01 17345   0.115E+00    0.185E+00
DAV:   6    -0.577740131146E+03   -0.10797E-01   -0.75184E-02 17322   0.493E-01    0.125E+00
DAV:   7    -0.577745020016E+03   -0.48889E-02   -0.47781E-02 17383   0.446E-01    0.903E-01
DAV:   8    -0.577743110653E+03    0.19094E-02   -0.35243E-02 17474   0.509E-01    0.532E-01
DAV:   9    -0.577748201721E+03   -0.50911E-02   -0.10293E-02 17532   0.254E-01    0.315E-01
DAV:  10    -0.577751478464E+03   -0.32767E-02   -0.30515E-03 17334   0.159E-01    0.163E-01
DAV:  11    -0.577754311478E+03   -0.28330E-02   -0.12200E-03 17425   0.800E-02    0.135E-01
DAV:  12    -0.577754440729E+03   -0.12925E-03   -0.62125E-04 17722   0.691E-02    0.130E-01
DAV:  13    -0.577754073078E+03    0.36765E-03   -0.28407E-04 17488   0.422E-02    0.900E-02
DAV:  14    -0.577753872353E+03    0.20072E-03   -0.10171E-04 17624   0.263E-02    0.811E-02
DAV:  15    -0.577753935788E+03   -0.63435E-04   -0.32864E-05 16424   0.150E-02    0.799E-02
DAV:  16    -0.577754006156E+03   -0.70368E-04   -0.19400E-05 16488   0.135E-02    0.724E-02
DAV:  17    -0.577753644565E+03    0.36159E-03   -0.32220E-05 16341   0.119E-02    0.526E-02
DAV:  18    -0.577752562751E+03    0.10818E-02   -0.43773E-05 16749   0.139E-02    0.382E-02
DAV:  19    -0.577751571191E+03    0.99156E-03   -0.29054E-05 16245   0.123E-02    0.309E-02
DAV:  20    -0.577750910752E+03    0.66044E-03   -0.33794E-05 16261   0.113E-02    0.234E-02
DAV:  21    -0.577751418333E+03   -0.50758E-03   -0.30241E-05 16090   0.989E-03    0.188E-02
DAV:  22    -0.577753230697E+03   -0.18124E-02   -0.17592E-05 15573   0.893E-03    0.193E-02
DAV:  23    -0.577755602428E+03   -0.23717E-02   -0.18483E-05 15276   0.780E-03    0.119E-02
DAV:  24    -0.577757505726E+03   -0.19033E-02   -0.13483E-05 15258   0.680E-03    0.126E-02
DAV:  25    -0.577758645854E+03   -0.11401E-02   -0.70528E-06 13170   0.470E-03    0.115E-02
DAV:  26    -0.577759569493E+03   -0.92364E-03   -0.49566E-06 12890   0.325E-03    0.924E-03
DAV:  27    -0.577760409695E+03   -0.84020E-03   -0.38475E-06 12829   0.281E-03    0.748E-03
DAV:  28    -0.577761334211E+03   -0.92452E-03   -0.40469E-06 12671   0.218E-03    0.535E-03
DAV:  29    -0.577761903462E+03   -0.56925E-03   -0.21473E-06 12656   0.242E-03    0.477E-03
DAV:  30    -0.577762605972E+03   -0.70251E-03   -0.33470E-06 12949   0.207E-03    0.518E-03
DAV:  31    -0.577762847478E+03   -0.24151E-03   -0.96204E-07 12036   0.204E-03    0.263E-03
DAV:  32    -0.577763040686E+03   -0.19321E-03   -0.11070E-06 12338   0.176E-03    0.270E-03
DAV:  33    -0.577763137061E+03   -0.96375E-04   -0.59872E-07 12125   0.101E-03    0.264E-03
DAV:  34    -0.577763168602E+03   -0.31541E-04   -0.25423E-07 11250   0.812E-04    0.147E-03
DAV:  35    -0.577763184868E+03   -0.16266E-04   -0.15555E-07 11114   0.582E-04    0.874E-04
DAV:  36    -0.577763191375E+03   -0.65069E-05   -0.56081E-08 11008   0.340E-04    0.669E-04
DAV:  37    -0.577763197354E+03   -0.59793E-05   -0.44653E-08 11060   0.208E-04    0.418E-04
DAV:  38    -0.577763200116E+03   -0.27616E-05   -0.29631E-08 10783   0.188E-04    0.256E-04
DAV:  39    -0.577763201218E+03   -0.11025E-05   -0.24495E-08 10703   0.156E-04    0.170E-04
DAV:  40    -0.577763201219E+03   -0.13970E-08   -0.10122E-08 10816   0.108E-04
   2 F= -.60830569E+03 E0= -.60827502E+03  d E =-.777929E+00  mag=    17.8044
       N       E                     dE             d eps       ncg     rms          rms(c)
DAV:   1    -0.563264349761E+03    0.14499E+02   -0.93288E+02 21457   0.677E+01    0.771E+00
DAV:   2    -0.580149155107E+03   -0.16885E+02   -0.16796E+02 17235   0.138E+01    0.143E+01
DAV:   3    -0.578626451318E+03    0.15227E+01   -0.65235E+00 17713   0.423E+00    0.571E+00
DAV:   4    -0.578737049107E+03   -0.11060E+00   -0.22930E+00 17751   0.254E+00    0.799E+00
DAV:   5    -0.578172744963E+03    0.56430E+00   -0.36595E+00 17536   0.239E+00    0.331E+00
DAV:   6    -0.578114852961E+03    0.57892E-01   -0.36672E-01 17304   0.120E+00    0.234E+00
DAV:   7    -0.578060989805E+03    0.53863E-01   -0.13297E-01 17251   0.877E-01    0.134E+00
DAV:   8    -0.578077753408E+03   -0.16764E-01   -0.10130E-01 17514   0.468E-01    0.742E-01
DAV:   9    -0.578096883749E+03   -0.19130E-01   -0.28213E-02 17533   0.348E-01    0.465E-01
DAV:  10    -0.578107996091E+03   -0.11112E-01   -0.77281E-03 17703   0.272E-01    0.385E-01
DAV:  11    -0.578115514128E+03   -0.75180E-02   -0.36797E-03 17467   0.157E-01    0.316E-01
DAV:  12    -0.578120599827E+03   -0.50857E-02   -0.18407E-03 17346   0.118E-01    0.120E-01
DAV:  13    -0.578126216433E+03   -0.56166E-02   -0.84567E-04 17315   0.591E-02    0.710E-02
DAV:  14    -0.578128360911E+03   -0.21445E-02   -0.20325E-04 17466   0.385E-02    0.522E-02
DAV:  15    -0.578129225072E+03   -0.86416E-03   -0.58636E-05 16708   0.194E-02    0.375E-02
DAV:  16    -0.578130327550E+03   -0.11025E-02   -0.23135E-05 16282   0.120E-02    0.226E-02
DAV:  17    -0.578131635787E+03   -0.13082E-02   -0.18034E-05 15663   0.114E-02    0.265E-02
DAV:  18    -0.578132325351E+03   -0.68956E-03   -0.86191E-06 15775   0.796E-03    0.237E-02
DAV:  19    -0.578133148656E+03   -0.82330E-03   -0.40910E-06 13407   0.595E-03    0.182E-02
DAV:  20    -0.578134074195E+03   -0.92554E-03   -0.43603E-06 13669   0.469E-03    0.161E-02
DAV:  21    -0.578134925820E+03   -0.85163E-03   -0.43513E-06 13224   0.449E-03    0.122E-02
DAV:  22    -0.578135866930E+03   -0.94111E-03   -0.51687E-06 13128   0.476E-03    0.939E-03
DAV:  23    -0.578136468685E+03   -0.60176E-03   -0.32052E-06 12782   0.349E-03    0.766E-03
DAV:  24    -0.578136987935E+03   -0.51925E-03   -0.22646E-06 12776   0.274E-03    0.606E-03
DAV:  25    -0.578137499108E+03   -0.51117E-03   -0.32027E-06 12957   0.272E-03    0.630E-03
DAV:  26    -0.578137865204E+03   -0.36610E-03   -0.23123E-06 12476   0.227E-03    0.434E-03
DAV:  27    -0.578138023646E+03   -0.15844E-03   -0.85875E-07 12002   0.165E-03    0.354E-03
DAV:  28    -0.578138194277E+03   -0.17063E-03   -0.13988E-06 12456   0.141E-03    0.214E-03
DAV:  29    -0.578138289216E+03   -0.94938E-04   -0.81428E-07 12152   0.114E-03    0.205E-03
DAV:  30    -0.578138342728E+03   -0.53513E-04   -0.57437E-07 11960   0.924E-04    0.151E-03
DAV:  31    -0.578138364802E+03   -0.22074E-04   -0.18173E-07 11384   0.486E-04    0.163E-03
DAV:  32    -0.578138378767E+03   -0.13965E-04   -0.74083E-08 11071   0.432E-04    0.150E-03
DAV:  33    -0.578138404103E+03   -0.25336E-04   -0.10234E-07 11245   0.407E-04    0.128E-03
DAV:  34    -0.578138422282E+03   -0.18179E-04   -0.56555E-08 11162   0.350E-04    0.108E-03
DAV:  35    -0.578138451871E+03   -0.29589E-04   -0.97224E-08 11080   0.332E-04    0.891E-04
DAV:  36    -0.578138478712E+03   -0.26841E-04   -0.11915E-07 11044   0.383E-04    0.855E-04
DAV:  37    -0.578138501313E+03   -0.22600E-04   -0.13782E-07 11373   0.399E-04    0.888E-04
DAV:  38    -0.578138508137E+03   -0.68245E-05   -0.46439E-08 11276   0.208E-04    0.851E-04
DAV:  39    -0.578138509608E+03   -0.14706E-05   -0.20824E-08 10594   0.195E-04    0.739E-04
DAV:  40    -0.578138509898E+03   -0.28987E-06   -0.96510E-09 10789   0.100E-04
   3 F= -.60867641E+03 E0= -.60864289E+03  d E =-.114865E+01  mag=    17.3539
       N       E                     dE             d eps       ncg     rms          rms(c)
DAV:   1    -0.571560145701E+03    0.65784E+01   -0.49744E+02 20411   0.490E+01    0.451E+00
DAV:   2    -0.579680329833E+03   -0.81202E+01   -0.76164E+01 17442   0.971E+00    0.906E+00
DAV:   3    -0.581214468509E+03   -0.15341E+01   -0.78207E+00 17735   0.586E+00    0.169E+01
DAV:   4    -0.578701217214E+03    0.25133E+01   -0.64784E+00 17454   0.282E+00    0.298E+00
DAV:   5    -0.578585157073E+03    0.11606E+00   -0.26803E-01 17466   0.117E+00    0.221E+00
DAV:   6    -0.578589522808E+03   -0.43657E-02   -0.87245E-02 17344   0.681E-01    0.136E+00
DAV:   7    -0.578592547238E+03   -0.30244E-02   -0.48984E-02 17356   0.460E-01    0.981E-01
DAV:   8    -0.578602122575E+03   -0.95753E-02   -0.41926E-02 17180   0.507E-01    0.698E-01
DAV:   9    -0.578606397969E+03   -0.42754E-02   -0.18599E-02 17382   0.297E-01    0.368E-01
DAV:  10    -0.578612921020E+03   -0.65231E-02   -0.40476E-03 17396   0.143E-01    0.402E-01
DAV:  11    -0.578616309432E+03   -0.33884E-02   -0.21199E-03 17347   0.133E-01    0.303E-01
DAV:  12    -0.578617754529E+03   -0.14451E-02   -0.16218E-03 17575   0.107E-01    0.168E-01
DAV:  13    -0.578620005550E+03   -0.22510E-02   -0.42725E-04 17272   0.526E-02    0.752E-02
DAV:  14    -0.578621333534E+03   -0.13280E-02   -0.97490E-05 17765   0.248E-02    0.651E-02
DAV:  15    -0.578622130716E+03   -0.79718E-03   -0.49591E-05 16874   0.180E-02    0.456E-02
DAV:  16    -0.578623897352E+03   -0.17666E-02   -0.44895E-05 16863   0.148E-02    0.257E-02
DAV:  17    -0.578625028602E+03   -0.11313E-02   -0.20456E-05 17072   0.110E-02    0.184E-02
DAV:  18    -0.578625640625E+03   -0.61202E-03   -0.70647E-06 14669   0.646E-03    0.154E-02
DAV:  19    -0.578626284533E+03   -0.64391E-03   -0.34641E-06 13125   0.412E-03    0.125E-02
DAV:  20    -0.578627037402E+03   -0.75287E-03   -0.32283E-06 12805   0.397E-03    0.915E-03
DAV:  21    -0.578627811673E+03   -0.77427E-03   -0.38094E-06 13157   0.340E-03    0.860E-03
DAV:  22    -0.578628385971E+03   -0.57430E-03   -0.27487E-06 12749   0.269E-03    0.714E-03
DAV:  23    -0.578629175955E+03   -0.78998E-03   -0.57074E-06 13117   0.283E-03    0.713E-03
DAV:  24    -0.578629823678E+03   -0.64772E-03   -0.58055E-06 12869   0.272E-03    0.519E-03
DAV:  25    -0.578630327769E+03   -0.50409E-03   -0.54172E-06 12680   0.189E-03    0.367E-03
DAV:  26    -0.578630539945E+03   -0.21218E-03   -0.18548E-06 12352   0.167E-03    0.348E-03
DAV:  27    -0.578630677662E+03   -0.13772E-03   -0.12627E-06 11758   0.133E-03    0.236E-03
DAV:  28    -0.578630740913E+03   -0.63251E-04   -0.52158E-07 11257   0.107E-03    0.249E-03
DAV:  29    -0.578630764871E+03   -0.23957E-04   -0.17168E-07 11098   0.885E-04    0.209E-03
DAV:  30    -0.578630784149E+03   -0.19278E-04   -0.13327E-07 10932   0.833E-04    0.157E-03
DAV:  31    -0.578630806583E+03   -0.22435E-04   -0.20161E-07 11097   0.781E-04    0.158E-03
DAV:  32    -0.578630819789E+03   -0.13205E-04   -0.14867E-07 10680   0.949E-04    0.134E-03
DAV:  33    -0.578630828484E+03   -0.86951E-05   -0.72283E-08 10992   0.425E-04    0.137E-03
DAV:  34    -0.578630833438E+03   -0.49544E-05   -0.34644E-08 10736   0.404E-04    0.748E-04
DAV:  35    -0.578630838174E+03   -0.47360E-05   -0.58796E-08 10964   0.555E-04    0.113E-03
DAV:  36    -0.578630840960E+03   -0.27856E-05   -0.36039E-08 10385   0.303E-04    0.137E-03
DAV:  37    -0.578630843479E+03   -0.25195E-05   -0.20707E-08 10527   0.285E-04    0.709E-04
DAV:  38    -0.578630847956E+03   -0.44769E-05   -0.29892E-08 10486   0.277E-04    0.310E-04
DAV:  39    -0.578630850874E+03   -0.29176E-05   -0.14143E-08 10575   0.158E-04    0.241E-04
DAV:  40    -0.578630853350E+03   -0.24766E-05   -0.95877E-09 10390   0.130E-04    0.255E-04
DAV:  41    -0.578630854657E+03   -0.13071E-05   -0.59500E-09 10089   0.116E-04    0.262E-04
DAV:  42    -0.578630855924E+03   -0.12661E-05   -0.52247E-09 10340   0.107E-04    0.202E-04
DAV:  43    -0.578630856724E+03   -0.80070E-06   -0.31260E-09 10375   0.858E-05
   4 F= -.60921835E+03 E0= -.60918182E+03  d E =-.541940E+00  mag=    17.0612
       N       E                     dE             d eps       ncg     rms          rms(c)
DAV:   1    -0.572422446790E+03    0.62084E+01   -0.45322E+02 20376   0.469E+01    0.433E+00
DAV:   2    -0.579820842519E+03   -0.73984E+01   -0.68721E+01 17480   0.934E+00    0.919E+00
DAV:   3    -0.580940561033E+03   -0.11197E+01   -0.85433E+00 17642   0.553E+00    0.156E+01
DAV:   4    -0.578806442759E+03    0.21341E+01   -0.44427E+00 17513   0.265E+00    0.296E+00
DAV:   5    -0.578678651476E+03    0.12779E+00   -0.24147E-01 17532   0.113E+00    0.227E+00
DAV:   6    -0.578687334526E+03   -0.86831E-02   -0.81624E-02 17277   0.685E-01    0.134E+00
DAV:   7    -0.578692254344E+03   -0.49198E-02   -0.49874E-02 17353   0.454E-01    0.102E+00
DAV:   8    -0.578704230356E+03   -0.11976E-01   -0.39288E-02 17200   0.478E-01    0.688E-01
DAV:   9    -0.578713886849E+03   -0.96565E-02   -0.20345E-02 17406   0.294E-01    0.391E-01
DAV:  10    -0.578720849929E+03   -0.69631E-02   -0.45003E-03 17401   0.154E-01    0.430E-01
DAV:  11    -0.578725033154E+03   -0.41832E-02   -0.26258E-03 17355   0.120E-01    0.335E-01
DAV:  12    -0.578728161275E+03   -0.31281E-02   -0.17068E-03 17401   0.117E-01    0.156E-01
DAV:  13    -0.578731896223E+03   -0.37349E-02   -0.48287E-04 17329   0.572E-02    0.780E-02
DAV:  14    -0.578733723710E+03   -0.18275E-02   -0.12619E-04 17920   0.258E-02    0.722E-02
DAV:  15    -0.578734830740E+03   -0.11070E-02   -0.67517E-05 16788   0.179E-02    0.518E-02
DAV:  16    -0.578737046479E+03   -0.22157E-02   -0.43475E-05 17063   0.140E-02    0.412E-02
DAV:  17    -0.578738309917E+03   -0.12634E-02   -0.23268E-05 16277   0.106E-02    0.324E-02
DAV:  18    -0.578739571560E+03   -0.12616E-02   -0.11580E-05 15199   0.778E-03    0.276E-02
DAV:  19    -0.578741066374E+03   -0.14948E-02   -0.69290E-06 14039   0.606E-03    0.252E-02
DAV:  20    -0.578742914845E+03   -0.18485E-02   -0.11847E-05 14125   0.676E-03    0.250E-02
DAV:  21    -0.578745598139E+03   -0.26833E-02   -0.26475E-05 14637   0.807E-03    0.204E-02
DAV:  22    -0.578747710218E+03   -0.21121E-02   -0.26067E-05 15041   0.763E-03    0.137E-02
DAV:  23    -0.578749335380E+03   -0.16252E-02   -0.29535E-05 14845   0.713E-03    0.156E-02
DAV:  24    -0.578750289792E+03   -0.95441E-03   -0.19771E-05 14152   0.593E-03    0.797E-03
DAV:  25    -0.578750850339E+03   -0.56055E-03   -0.93182E-06 13152   0.405E-03    0.662E-03
DAV:  26    -0.578751085451E+03   -0.23511E-03   -0.26802E-06 12368   0.276E-03    0.570E-03
DAV:  27    -0.578751292470E+03   -0.20702E-03   -0.17755E-06 11994   0.195E-03    0.409E-03
DAV:  28    -0.578751404652E+03   -0.11218E-03   -0.60000E-07 11514   0.151E-03    0.376E-03
DAV:  29    -0.578751539171E+03   -0.13452E-03   -0.60898E-07 11648   0.138E-03    0.314E-03
DAV:  30    -0.578751676992E+03   -0.13782E-03   -0.54173E-07 11404   0.128E-03    0.311E-03
DAV:  31    -0.578751839300E+03   -0.16231E-03   -0.75227E-07 11491   0.123E-03    0.278E-03
DAV:  32    -0.578751973400E+03   -0.13410E-03   -0.60897E-07 11809   0.118E-03    0.149E-03
DAV:  33    -0.578752028838E+03   -0.55438E-04   -0.19299E-07 11349   0.870E-04    0.136E-03
DAV:  34    -0.578752086974E+03   -0.58136E-04   -0.19489E-07 11320   0.652E-04    0.102E-03
DAV:  35    -0.578752118488E+03   -0.31515E-04   -0.86384E-08 11184   0.450E-04    0.941E-04
DAV:  36    -0.578752150003E+03   -0.31515E-04   -0.10468E-07 11096   0.388E-04    0.693E-04
DAV:  37    -0.578752168034E+03   -0.18031E-04   -0.67888E-08 11072   0.341E-04    0.634E-04
DAV:  38    -0.578752180815E+03   -0.12781E-04   -0.55759E-08 10972   0.248E-04    0.551E-04
DAV:  39    -0.578752186910E+03   -0.60948E-05   -0.25535E-08 10984   0.207E-04    0.406E-04
DAV:  40    -0.578752192918E+03   -0.60080E-05   -0.24362E-08 10582   0.149E-04    0.294E-04
DAV:  41    -0.578752195643E+03   -0.27250E-05   -0.13643E-08 10586   0.166E-04    0.206E-04
DAV:  42    -0.578752196916E+03   -0.12731E-05   -0.60827E-09 10912   0.113E-04    0.266E-04
DAV:  43    -0.578752197633E+03   -0.71782E-06   -0.35119E-09 10530   0.612E-05
   5 F= -.60938663E+03 E0= -.60934716E+03  d E =-.710216E+00  mag=    16.5713
       N       E                     dE             d eps       ncg     rms          rms(c)
DAV:   1    -0.575071709316E+03    0.36805E+01   -0.33804E+02 19682   0.404E+01    0.378E+00
DAV:   2    -0.578899451656E+03   -0.38277E+01   -0.41649E+01 17271   0.768E+00    0.230E+00
DAV:   3    -0.578933510865E+03   -0.34059E-01   -0.60819E-01 17392   0.135E+00    0.212E+00
DAV:   4    -0.579047430622E+03   -0.11392E+00   -0.52007E-01 18352   0.155E+00    0.356E+00
DAV:   5    -0.578932114742E+03    0.11532E+00   -0.72199E-01 18628   0.128E+00    0.225E+00
DAV:   6    -0.578923639197E+03    0.84755E-02   -0.21188E-01 17825   0.952E-01    0.164E+00
DAV:   7    -0.578889548957E+03    0.34090E-01   -0.55242E-02 17261   0.589E-01    0.712E-01
DAV:   8    -0.578885779934E+03    0.37690E-02   -0.12915E-02 17175   0.275E-01    0.400E-01
DAV:   9    -0.578884895084E+03    0.88485E-03   -0.42193E-03 17023   0.175E-01    0.251E-01
DAV:  10    -0.578884874549E+03    0.20535E-04   -0.11867E-03 17473   0.930E-02    0.202E-01
DAV:  11    -0.578884625026E+03    0.24952E-03   -0.62581E-04 17367   0.676E-02    0.983E-02
DAV:  12    -0.578884473848E+03    0.15118E-03   -0.26640E-04 17574   0.452E-02    0.658E-02
DAV:  13    -0.578884201418E+03    0.27243E-03   -0.84189E-05 17424   0.249E-02    0.485E-02
DAV:  14    -0.578884016006E+03    0.18541E-03   -0.37675E-05 16676   0.175E-02    0.543E-02
DAV:  15    -0.578883873183E+03    0.14282E-03   -0.30490E-05 15872   0.141E-02    0.377E-02
DAV:  16    -0.578883657372E+03    0.21581E-03   -0.19174E-05 16047   0.106E-02    0.301E-02
DAV:  17    -0.578883485369E+03    0.17200E-03   -0.26827E-05 16632   0.130E-02    0.341E-02
DAV:  18    -0.578883376358E+03    0.10901E-03   -0.24775E-05 15377   0.114E-02    0.268E-02
DAV:  19    -0.578883290536E+03    0.85822E-04   -0.23196E-05 15524   0.880E-03    0.176E-02
DAV:  20    -0.578883514765E+03   -0.22423E-03   -0.25282E-05 15978   0.864E-03    0.192E-02
DAV:  21    -0.578883740488E+03   -0.22572E-03   -0.94764E-06 14121   0.667E-03    0.112E-02
DAV:  22    -0.578884318416E+03   -0.57793E-03   -0.76088E-06 12741   0.568E-03    0.111E-02
DAV:  23    -0.578884705173E+03   -0.38676E-03   -0.39923E-06 13020   0.364E-03    0.935E-03
DAV:  24    -0.578885203843E+03   -0.49867E-03   -0.27199E-06 12284   0.340E-03    0.553E-03
DAV:  25    -0.578885692141E+03   -0.48830E-03   -0.28311E-06 12360   0.338E-03    0.859E-03
DAV:  26    -0.578886249533E+03   -0.55739E-03   -0.35975E-06 12893   0.225E-03    0.750E-03
DAV:  27    -0.578886613803E+03   -0.36427E-03   -0.16017E-06 12272   0.229E-03    0.439E-03
DAV:  28    -0.578887110134E+03   -0.49633E-03   -0.23689E-06 12508   0.237E-03    0.425E-03
DAV:  29    -0.578887431753E+03   -0.32162E-03   -0.13312E-06 12093   0.178E-03    0.389E-03
DAV:  30    -0.578887720411E+03   -0.28866E-03   -0.87305E-07 12173   0.128E-03    0.231E-03
DAV:  31    -0.578887914833E+03   -0.19442E-03   -0.44986E-07 11741   0.112E-03    0.156E-03
DAV:  32    -0.578888079428E+03   -0.16459E-03   -0.41885E-07 11813   0.827E-04    0.126E-03
DAV:  33    -0.578888158209E+03   -0.78782E-04   -0.16432E-07 11151   0.643E-04    0.790E-04
DAV:  34    -0.578888216521E+03   -0.58312E-04   -0.16888E-07 11135   0.526E-04    0.713E-04
DAV:  35    -0.578888242061E+03   -0.25540E-04   -0.74412E-08 11213   0.417E-04    0.571E-04
DAV:  36    -0.578888253924E+03   -0.11863E-04   -0.44775E-08 11029   0.275E-04    0.435E-04
DAV:  37    -0.578888258936E+03   -0.50114E-05   -0.24545E-08 10920   0.180E-04    0.356E-04
DAV:  38    -0.578888260390E+03   -0.14545E-05   -0.94083E-09 10640   0.119E-04    0.332E-04
DAV:  39    -0.578888261157E+03   -0.76694E-06   -0.54680E-09 10319   0.790E-05
   6 F= -.60957332E+03 E0= -.60953538E+03  d E =-.186695E+00  mag=    16.8467
       N       E                     dE             d eps       ncg     rms          rms(c)
DAV:   1    -0.578661543303E+03    0.22672E+00   -0.27213E+01 19908   0.115E+01    0.108E+00
DAV:   2    -0.578946709448E+03   -0.28517E+00   -0.30503E+00 16975   0.214E+00    0.953E-01
DAV:   3    -0.579043903456E+03   -0.97194E-01   -0.30407E-01 17459   0.112E+00    0.283E+00
DAV:   4    -0.578941246421E+03    0.10266E+00   -0.23222E-01 17788   0.797E-01    0.704E-01
DAV:   5    -0.578938981279E+03    0.22651E-02   -0.10071E-02 17460   0.226E-01    0.522E-01
DAV:   6    -0.578937976400E+03    0.10049E-02   -0.71085E-03 17413   0.231E-01    0.379E-01
DAV:   7    -0.578938497548E+03   -0.52115E-03   -0.41488E-03 17133   0.149E-01    0.337E-01
DAV:   8    -0.578936985152E+03    0.15124E-02   -0.14024E-03 17169   0.113E-01    0.170E-01
DAV:   9    -0.578936672654E+03    0.31250E-03   -0.57170E-04 17136   0.637E-02    0.644E-02
DAV:  10    -0.578936709217E+03   -0.36562E-04   -0.16090E-04 17308   0.329E-02    0.613E-02
DAV:  11    -0.578936705432E+03    0.37842E-05   -0.49023E-05 17037   0.196E-02    0.272E-02
DAV:  12    -0.578936729786E+03   -0.24353E-04   -0.16830E-05 16624   0.112E-02    0.129E-02
DAV:  13    -0.578936757990E+03   -0.28204E-04   -0.66970E-06 15834   0.657E-03    0.104E-02
DAV:  14    -0.578936777086E+03   -0.19097E-04   -0.23743E-06 12128   0.464E-03    0.105E-02
DAV:  15    -0.578936791819E+03   -0.14732E-04   -0.14565E-06 11216   0.318E-03    0.751E-03
DAV:  16    -0.578936825102E+03   -0.33284E-04   -0.77997E-07 11245   0.229E-03    0.609E-03
DAV:  17    -0.578936862215E+03   -0.37113E-04   -0.96016E-07 11621   0.275E-03    0.635E-03
DAV:  18    -0.578936876217E+03   -0.14002E-04   -0.86685E-07 11624   0.229E-03    0.694E-03
DAV:  19    -0.578936855792E+03    0.20426E-04   -0.96421E-07 11856   0.182E-03    0.501E-03
DAV:  20    -0.578936830001E+03    0.25791E-04   -0.69167E-07 11514   0.210E-03    0.364E-03
DAV:  21    -0.578936805390E+03    0.24611E-04   -0.56781E-07 11054   0.173E-03    0.276E-03
DAV:  22    -0.578936807886E+03   -0.24962E-05   -0.21796E-07 11104   0.114E-03    0.224E-03
DAV:  23    -0.578936818505E+03   -0.10618E-04   -0.14187E-07 11013   0.879E-04    0.191E-03
DAV:  24    -0.578936835557E+03   -0.17052E-04   -0.10604E-07 10805   0.691E-04    0.174E-03
DAV:  25    -0.578936873005E+03   -0.37449E-04   -0.17320E-07 10922   0.569E-04    0.125E-03
DAV:  26    -0.578936895101E+03   -0.22095E-04   -0.76510E-08 10670   0.468E-04    0.114E-03
DAV:  27    -0.578936947973E+03   -0.52873E-04   -0.20125E-07 10894   0.396E-04    0.103E-03
DAV:  28    -0.578936984289E+03   -0.36316E-04   -0.12480E-07 11039   0.429E-04    0.898E-04
DAV:  29    -0.578937044765E+03   -0.60476E-04   -0.23910E-07 11057   0.458E-04    0.565E-04
DAV:  30    -0.578937074942E+03   -0.30177E-04   -0.76204E-08 11360   0.306E-04    0.595E-04
DAV:  31    -0.578937103127E+03   -0.28185E-04   -0.65083E-08 10723   0.238E-04    0.596E-04
DAV:  32    -0.578937115346E+03   -0.12219E-04   -0.27722E-08 10564   0.303E-04    0.968E-04
DAV:  33    -0.578937125177E+03   -0.98315E-05   -0.19839E-08 10757   0.269E-04    0.449E-04
DAV:  34    -0.578937133120E+03   -0.79423E-05   -0.15453E-08 10681   0.275E-04    0.619E-04
DAV:  35    -0.578937139924E+03   -0.68047E-05   -0.13010E-08 10430   0.162E-04    0.882E-04
DAV:  36    -0.578937141530E+03   -0.16061E-05   -0.47008E-09 10706   0.152E-04    0.521E-04
DAV:  37    -0.578937143096E+03   -0.15658E-05   -0.38111E-09 10125   0.132E-04    0.350E-04
DAV:  38    -0.578937143941E+03   -0.84494E-06   -0.18017E-09 10504   0.535E-05
   7 F= -.60960802E+03 E0= -.60956972E+03  d E =-.221388E+00  mag=    16.7848
       N       E                     dE             d eps       ncg     rms          rms(c)
DAV:   1    -0.578476242002E+03    0.46090E+00   -0.37458E+01 22170   0.159E+01    0.144E+00
DAV:   2    -0.579009572287E+03   -0.53333E+00   -0.54170E+00 17275   0.295E+00    0.238E+00
DAV:   3    -0.579088658150E+03   -0.79086E-01   -0.63942E-01 17722   0.145E+00    0.307E+00
DAV:   4    -0.578975974964E+03    0.11268E+00   -0.49873E-01 17500   0.113E+00    0.146E+00
DAV:   5    -0.578952922822E+03    0.23052E-01   -0.42953E-02 17351   0.401E-01    0.459E-01
DAV:   6    -0.578956613696E+03   -0.36909E-02   -0.16543E-02 17106   0.288E-01    0.621E-01
DAV:   7    -0.578952518175E+03    0.40955E-02   -0.86192E-03 17075   0.251E-01    0.174E-01
DAV:   8    -0.578953162021E+03   -0.64385E-03   -0.15662E-03 17601   0.129E-01    0.219E-01
DAV:   9    -0.578952480261E+03    0.68176E-03   -0.63280E-04 17398   0.836E-02    0.971E-02
DAV:  10    -0.578952423921E+03    0.56341E-04   -0.22197E-04 17720   0.405E-02    0.858E-02
DAV:  11    -0.578952364362E+03    0.59559E-04   -0.99609E-05 17146   0.253E-02    0.253E-02
DAV:  12    -0.578952348017E+03    0.16345E-04   -0.26209E-05 16558   0.103E-02    0.171E-02
DAV:  13    -0.578952352644E+03   -0.46275E-05   -0.12236E-05 16045   0.848E-03    0.209E-02
DAV:  14    -0.578952348573E+03    0.40713E-05   -0.70430E-06 15149   0.679E-03    0.128E-02
DAV:  15    -0.578952338587E+03    0.99866E-05   -0.25337E-06 12690   0.460E-03    0.870E-03
DAV:  16    -0.578952324777E+03    0.13809E-04   -0.16710E-06 11728   0.299E-03    0.849E-03
DAV:  17    -0.578952299586E+03    0.25192E-04   -0.14440E-06 11791   0.307E-03    0.880E-03
DAV:  18    -0.578952252258E+03    0.47327E-04   -0.10583E-06 11468   0.240E-03    0.611E-03
DAV:  19    -0.578952193321E+03    0.58937E-04   -0.99986E-07 11248   0.250E-03    0.671E-03
DAV:  20    -0.578952167053E+03    0.26268E-04   -0.73314E-07 11226   0.242E-03    0.409E-03
DAV:  21    -0.578952157864E+03    0.91894E-05   -0.76458E-07 11645   0.225E-03    0.479E-03
DAV:  22    -0.578952157727E+03    0.13737E-06   -0.62634E-07 11131   0.161E-03
   8 F= -.60964966E+03 E0= -.60961175E+03  d E =-.416447E-01  mag=    16.8523
       N       E                     dE             d eps       ncg     rms          rms(c)
DAV:   1    -0.578948819634E+03    0.33382E-02   -0.14651E-01 22118   0.998E-01    0.902E-02
DAV:   2    -0.578950904877E+03   -0.20852E-02   -0.20585E-02 17048   0.184E-01    0.146E-01
DAV:   3    -0.578951261242E+03   -0.35636E-03   -0.11048E-03 17278   0.929E-02    0.197E-01
DAV:   4    -0.578950835390E+03    0.42585E-03   -0.60517E-04 17311   0.747E-02    0.993E-02
DAV:   5    -0.578950733750E+03    0.10164E-03   -0.99552E-05 16732   0.254E-02    0.297E-02
DAV:   6    -0.578950774049E+03   -0.40299E-04   -0.51398E-05 16620   0.163E-02    0.303E-02
DAV:   7    -0.578950796803E+03   -0.22754E-04   -0.27948E-05 16218   0.152E-02    0.145E-02
DAV:   8    -0.578950825047E+03   -0.28244E-04   -0.71576E-06 15140   0.819E-03    0.157E-02
DAV:   9    -0.578950840648E+03   -0.15602E-04   -0.27035E-06 11758   0.536E-03    0.885E-03
DAV:  10    -0.578950852625E+03   -0.11976E-04   -0.10880E-06 11277   0.297E-03    0.410E-03
DAV:  11    -0.578950871500E+03   -0.18875E-04   -0.33039E-07 10576   0.147E-03    0.165E-03
DAV:  12    -0.578950892142E+03   -0.20643E-04   -0.14126E-07 10701   0.965E-04    0.202E-03
DAV:  13    -0.578950908039E+03   -0.15897E-04   -0.83044E-08 10656   0.654E-04    0.191E-03
DAV:  14    -0.578950926276E+03   -0.18237E-04   -0.46588E-08 10616   0.540E-04    0.124E-03
DAV:  15    -0.578950959581E+03   -0.33305E-04   -0.55850E-08 10389   0.381E-04    0.107E-03
DAV:  16    -0.578950978645E+03   -0.19064E-04   -0.28722E-08 10989   0.332E-04    0.105E-03
DAV:  17    -0.578951027989E+03   -0.49344E-04   -0.10985E-07 10813   0.378E-04    0.847E-04
DAV:  18    -0.578951075781E+03   -0.47793E-04   -0.17997E-07 11348   0.466E-04    0.999E-04
DAV:  19    -0.578951094077E+03   -0.18295E-04   -0.58559E-08 11248   0.339E-04    0.815E-04
DAV:  20    -0.578951107705E+03   -0.13629E-04   -0.57705E-08 11077   0.326E-04    0.421E-04
DAV:  21    -0.578951113362E+03   -0.56566E-05   -0.29881E-08 10896   0.243E-04    0.355E-04
DAV:  22    -0.578951115459E+03   -0.20978E-05   -0.15253E-08 10722   0.162E-04    0.283E-04
DAV:  23    -0.578951115961E+03   -0.50198E-06   -0.57149E-09 10629   0.952E-05
   9 F= -.60965028E+03 E0= -.60961239E+03  d E =-.422645E-01  mag=    16.8657
       N       E                     dE             d eps       ncg     rms          rms(c)
DAV:   1    -0.578743417097E+03    0.20770E+00   -0.18835E+01 20231   0.101E+01    0.853E-01
DAV:   2    -0.578973562669E+03   -0.23015E+00   -0.22877E+00 17503   0.192E+00    0.149E+00
DAV:   3    -0.579013781573E+03   -0.40219E-01   -0.27888E-01 17646   0.999E-01    0.202E+00
DAV:   4    -0.578955856183E+03    0.57925E-01   -0.17893E-01 17411   0.686E-01    0.742E-01
DAV:   5    -0.578949905782E+03    0.59504E-02   -0.12520E-02 17292   0.191E-01    0.274E-01
DAV:   6    -0.578949627146E+03    0.27864E-03   -0.34076E-03 17551   0.122E-01    0.258E-01
DAV:   7    -0.578949014971E+03    0.61218E-03   -0.16942E-03 17193   0.121E-01    0.162E-01
DAV:   8    -0.578948937766E+03    0.77204E-04   -0.69365E-04 17181   0.718E-02    0.146E-01
DAV:   9    -0.578948703126E+03    0.23464E-03   -0.27339E-04 17650   0.555E-02    0.862E-02
DAV:  10    -0.578948721381E+03   -0.18255E-04   -0.13330E-04 17237   0.299E-02    0.636E-02
DAV:  11    -0.578948757597E+03   -0.36216E-04   -0.44958E-05 17057   0.184E-02    0.212E-02
DAV:  12    -0.578948864511E+03   -0.10691E-03   -0.13125E-05 15467   0.866E-03    0.112E-02
DAV:  13    -0.578948939586E+03   -0.75075E-04   -0.60996E-06 14469   0.640E-03    0.125E-02
DAV:  14    -0.578949007020E+03   -0.67434E-04   -0.36212E-06 12703   0.470E-03    0.647E-03
DAV:  15    -0.578949075344E+03   -0.68323E-04   -0.15237E-06 11941   0.354E-03    0.433E-03
DAV:  16    -0.578949129045E+03   -0.53701E-04   -0.57828E-07 10899   0.157E-03    0.299E-03
DAV:  17    -0.578949186506E+03   -0.57461E-04   -0.36136E-07 11266   0.117E-03    0.294E-03
DAV:  18    -0.578949267284E+03   -0.80777E-04   -0.43964E-07 11321   0.884E-04    0.216E-03
DAV:  19    -0.578949345983E+03   -0.78700E-04   -0.39675E-07 11176   0.925E-04    0.215E-03
DAV:  20    -0.578949441020E+03   -0.95037E-04   -0.56100E-07 11536   0.902E-04    0.219E-03
DAV:  21    -0.578949534515E+03   -0.93495E-04   -0.55787E-07 11435   0.794E-04    0.186E-03
DAV:  22    -0.578949617566E+03   -0.83051E-04   -0.46558E-07 11520   0.737E-04    0.143E-03
DAV:  23    -0.578949685081E+03   -0.67515E-04   -0.34006E-07 11190   0.819E-04    0.111E-03
DAV:  24    -0.578949732165E+03   -0.47084E-04   -0.16283E-07 11269   0.519E-04    0.782E-04
DAV:  25    -0.578949767065E+03   -0.34900E-04   -0.10194E-07 11073   0.434E-04    0.960E-04
DAV:  26    -0.578949784689E+03   -0.17624E-04   -0.45518E-08 10464   0.343E-04    0.860E-04
DAV:  27    -0.578949796263E+03   -0.11574E-04   -0.29034E-08 10695   0.299E-04    0.537E-04
DAV:  28    -0.578949800693E+03   -0.44303E-05   -0.14644E-08 10328   0.235E-04    0.501E-04
DAV:  29    -0.578949802436E+03   -0.17427E-05   -0.10165E-08 10224   0.196E-04    0.429E-04
DAV:  30    -0.578949802292E+03    0.14412E-06   -0.56043E-09 10155   0.175E-04
  10 F= -.60967523E+03 E0= -.60963705E+03  d E =-.249491E-01  mag=    16.8439
       N       E                     dE             d eps       ncg     rms          rms(c)
DAV:   1    -0.578546378562E+03    0.40342E+00   -0.34335E+01 20256   0.137E+01    0.116E+00
DAV:   2    -0.578973342711E+03   -0.42696E+00   -0.42102E+00 17444   0.261E+00    0.215E+00
DAV:   3    -0.579037271319E+03   -0.63929E-01   -0.63436E-01 17718   0.135E+00    0.266E+00
DAV:   4    -0.578935917838E+03    0.10135E+00   -0.29072E-01 17486   0.910E-01    0.101E+00
DAV:   5    -0.578924836028E+03    0.11082E-01   -0.21210E-02 17244   0.264E-01    0.371E-01
DAV:   6    -0.578924010908E+03    0.82512E-03   -0.63194E-03 17564   0.166E-01    0.345E-01
DAV:   7    -0.578922986539E+03    0.10244E-02   -0.32601E-03 17350   0.163E-01    0.217E-01
DAV:   8    -0.578922879314E+03    0.10722E-03   -0.14380E-03 17254   0.998E-02    0.200E-01
DAV:   9    -0.578922430016E+03    0.44930E-03   -0.56159E-04 17561   0.765E-02    0.114E-01
DAV:  10    -0.578922482906E+03   -0.52891E-04   -0.21330E-04 17206   0.405E-02    0.899E-02
DAV:  11    -0.578922543607E+03   -0.60701E-04   -0.78629E-05 17254   0.256E-02    0.303E-02
DAV:  12    -0.578922755238E+03   -0.21163E-03   -0.25801E-05 16318   0.120E-02    0.147E-02
DAV:  13    -0.578922921315E+03   -0.16608E-03   -0.11322E-05 15511   0.873E-03    0.163E-02
DAV:  14    -0.578923055416E+03   -0.13410E-03   -0.69481E-06 15645   0.671E-03    0.914E-03
DAV:  15    -0.578923180468E+03   -0.12505E-03   -0.26843E-06 12447   0.478E-03    0.630E-03
DAV:  16    -0.578923275288E+03   -0.94820E-04   -0.10543E-06 11180   0.223E-03    0.414E-03
DAV:  17    -0.578923383195E+03   -0.10791E-03   -0.60046E-07 11477   0.163E-03    0.430E-03
DAV:  18    -0.578923527783E+03   -0.14459E-03   -0.78394E-07 11583   0.126E-03    0.307E-03
DAV:  19    -0.578923686390E+03   -0.15861E-03   -0.95673E-07 11795   0.132E-03    0.296E-03
DAV:  20    -0.578923845316E+03   -0.15893E-03   -0.10361E-06 11603   0.128E-03    0.278E-03
DAV:  21    -0.578923991393E+03   -0.14608E-03   -0.93011E-07 12048   0.120E-03    0.271E-03
DAV:  22    -0.578924132840E+03   -0.14145E-03   -0.96240E-07 11687   0.107E-03    0.222E-03
DAV:  23    -0.578924235743E+03   -0.10290E-03   -0.62561E-07 11388   0.124E-03    0.173E-03
DAV:  24    -0.578924301797E+03   -0.66054E-04   -0.25041E-07 11311   0.744E-04    0.108E-03
DAV:  25    -0.578924351256E+03   -0.49459E-04   -0.14366E-07 11301   0.678E-04    0.161E-03
DAV:  26    -0.578924388300E+03   -0.37044E-04   -0.10488E-07 10972   0.479E-04    0.161E-03
DAV:  27    -0.578924409890E+03   -0.21591E-04   -0.59098E-08 10552   0.436E-04    0.937E-04
DAV:  28    -0.578924418942E+03   -0.90518E-05   -0.31485E-08 10451   0.403E-04    0.670E-04
DAV:  29    -0.578924423354E+03   -0.44119E-05   -0.22144E-08 10472   0.322E-04    0.681E-04
DAV:  30    -0.578924423505E+03   -0.15087E-06   -0.10326E-08 10226   0.251E-04
  11 F= -.60968543E+03 E0= -.60964679E+03  d E =-.351496E-01  mag=    16.8109
       N       E                     dE             d eps       ncg     rms          rms(c)
DAV:   1    -0.578754628984E+03    0.16979E+00   -0.15569E+01 19968   0.848E+00    0.723E-01
DAV:   2    -0.578944316064E+03   -0.18969E+00   -0.18237E+00 17385   0.167E+00    0.151E+00
DAV:   3    -0.578961048662E+03   -0.16733E-01   -0.27225E-01 17446   0.916E-01    0.165E+00
DAV:   4    -0.578918785011E+03    0.42264E-01   -0.79985E-02 17381   0.524E-01    0.445E-01
DAV:   5    -0.578916784887E+03    0.20001E-02   -0.44326E-03 17222   0.127E-01    0.232E-01
DAV:   6    -0.578916041660E+03    0.74323E-03   -0.19901E-03 17552   0.910E-02    0.202E-01
DAV:   7    -0.578915510331E+03    0.53133E-03   -0.12225E-03 17478   0.103E-01    0.153E-01
DAV:   8    -0.578915271332E+03    0.23900E-03   -0.70153E-04 17235   0.637E-02    0.117E-01
DAV:   9    -0.578915138476E+03    0.13286E-03   -0.21048E-04 17314   0.433E-02    0.487E-02
DAV:  10    -0.578915294381E+03   -0.15590E-03   -0.57347E-05 17025   0.199E-02    0.492E-02
DAV:  11    -0.578915361414E+03   -0.67033E-04   -0.20205E-05 15765   0.129E-02    0.217E-02
DAV:  12    -0.578915525837E+03   -0.16442E-03   -0.12203E-05 15539   0.785E-03    0.100E-02
DAV:  13    -0.578915644512E+03   -0.11868E-03   -0.47523E-06 14567   0.480E-03    0.909E-03
DAV:  14    -0.578915734756E+03   -0.90244E-04   -0.29911E-06 12062   0.465E-03    0.886E-03
DAV:  15    -0.578915801461E+03   -0.66704E-04   -0.12799E-06 11618   0.307E-03    0.791E-03
DAV:  16    -0.578915902710E+03   -0.10125E-03   -0.10344E-06 11533   0.205E-03    0.540E-03
DAV:  17    -0.578916060239E+03   -0.15753E-03   -0.16566E-06 12181   0.205E-03    0.558E-03
DAV:  18    -0.578916196844E+03   -0.13661E-03   -0.14771E-06 11877   0.179E-03    0.395E-03
DAV:  19    -0.578916411964E+03   -0.21512E-03   -0.37250E-06 12361   0.207E-03    0.375E-03
DAV:  20    -0.578916540005E+03   -0.12804E-03   -0.17902E-06 12082   0.195E-03    0.350E-03
DAV:  21    -0.578916622359E+03   -0.82353E-04   -0.65728E-07 11536   0.132E-03    0.246E-03
DAV:  22    -0.578916677028E+03   -0.54670E-04   -0.25075E-07 10767   0.105E-03    0.149E-03
DAV:  23    -0.578916721619E+03   -0.44591E-04   -0.11097E-07 11040   0.779E-04    0.135E-03
DAV:  24    -0.578916775629E+03   -0.54009E-04   -0.62462E-08 10684   0.555E-04    0.125E-03
DAV:  25    -0.578916822185E+03   -0.46557E-04   -0.44249E-08 11061   0.484E-04    0.708E-04
DAV:  26    -0.578916852549E+03   -0.30364E-04   -0.29996E-08 10454   0.368E-04    0.744E-04
DAV:  27    -0.578916874429E+03   -0.21880E-04   -0.17976E-08 10613   0.263E-04    0.633E-04
DAV:  28    -0.578916895657E+03   -0.21228E-04   -0.20440E-08 10488   0.231E-04    0.520E-04
DAV:  29    -0.578916912073E+03   -0.16415E-04   -0.19553E-08 10970   0.217E-04    0.425E-04
DAV:  30    -0.578916923980E+03   -0.11907E-04   -0.17223E-08 10678   0.183E-04    0.393E-04
DAV:  31    -0.578916932245E+03   -0.82655E-05   -0.16397E-08 10850   0.152E-04    0.324E-04
DAV:  32    -0.578916936853E+03   -0.46082E-05   -0.13577E-08 10888   0.131E-04    0.347E-04
DAV:  33    -0.578916940071E+03   -0.32177E-05   -0.13688E-08 10808   0.117E-04    0.316E-04
DAV:  34    -0.578916941197E+03   -0.11262E-05   -0.75576E-09 10896   0.787E-05    0.286E-04
DAV:  35    -0.578916941489E+03   -0.29174E-06   -0.29620E-09 10549   0.587E-05
  12 F= -.60970039E+03 E0= -.60966157E+03  d E =-.149625E-01  mag=    16.7458
       N       E                     dE             d eps       ncg     rms          rms(c)
DAV:   1    -0.578835109519E+03    0.81832E-01   -0.67488E+00 19944   0.558E+00    0.476E-01
DAV:   2    -0.578916150859E+03   -0.81041E-01   -0.78111E-01 17256   0.109E+00    0.956E-01
DAV:   3    -0.578924780233E+03   -0.86294E-02   -0.97223E-02 17291   0.601E-01    0.111E+00
DAV:   4    -0.578905852866E+03    0.18927E-01   -0.33169E-02 17314   0.351E-01    0.284E-01
DAV:   5    -0.578905071745E+03    0.78112E-03   -0.19912E-03 17257   0.825E-02    0.154E-01
DAV:   6    -0.578904687993E+03    0.38375E-03   -0.91179E-04 17656   0.607E-02    0.137E-01
DAV:   7    -0.578904435306E+03    0.25269E-03   -0.53377E-04 17519   0.662E-02    0.101E-01
DAV:   8    -0.578904309585E+03    0.12572E-03   -0.28302E-04 17136   0.409E-02    0.743E-02
DAV:   9    -0.578904252714E+03    0.56871E-04   -0.79080E-05 17156   0.283E-02    0.292E-02
DAV:  10    -0.578904323659E+03   -0.70945E-04   -0.22964E-05 16357   0.126E-02    0.297E-02
DAV:  11    -0.578904355123E+03   -0.31464E-04   -0.77097E-06 14307   0.816E-03    0.136E-02
DAV:  12    -0.578904432588E+03   -0.77466E-04   -0.52475E-06 14308   0.506E-03    0.646E-03
DAV:  13    -0.578904488130E+03   -0.55542E-04   -0.20426E-06 12591   0.296E-03    0.555E-03
DAV:  14    -0.578904528732E+03   -0.40602E-04   -0.10871E-06 11280   0.273E-03    0.544E-03
DAV:  15    -0.578904558801E+03   -0.30069E-04   -0.51315E-07 11074   0.191E-03    0.463E-03
DAV:  16    -0.578904610333E+03   -0.51532E-04   -0.45769E-07 11143   0.111E-03    0.362E-03
DAV:  17    -0.578904681456E+03   -0.71123E-04   -0.70931E-07 11535   0.132E-03    0.370E-03
DAV:  18    -0.578904760492E+03   -0.79036E-04   -0.90345E-07 11760   0.119E-03    0.235E-03
DAV:  19    -0.578904875182E+03   -0.11469E-03   -0.18094E-06 11930   0.125E-03    0.233E-03
DAV:  20    -0.578904934740E+03   -0.59559E-04   -0.64552E-07 11677   0.116E-03    0.194E-03
DAV:  21    -0.578904981427E+03   -0.46686E-04   -0.29515E-07 10919   0.801E-04    0.142E-03
DAV:  22    -0.578905009738E+03   -0.28311E-04   -0.99236E-08 10711   0.642E-04    0.954E-04
DAV:  23    -0.578905041262E+03   -0.31524E-04   -0.53874E-08 10639   0.478E-04    0.779E-04
DAV:  24    -0.578905072036E+03   -0.30774E-04   -0.27777E-08 10374   0.351E-04    0.646E-04
DAV:  25    -0.578905094709E+03   -0.22674E-04   -0.17357E-08 10527   0.286E-04    0.507E-04
DAV:  26    -0.578905113291E+03   -0.18582E-04   -0.14293E-08 10578   0.217E-04    0.540E-04
DAV:  27    -0.578905123551E+03   -0.10259E-04   -0.86316E-09 10355   0.178E-04    0.444E-04
DAV:  28    -0.578905138745E+03   -0.15194E-04   -0.15890E-08 10688   0.145E-04    0.385E-04
DAV:  29    -0.578905144848E+03   -0.61037E-05   -0.93736E-09 10700   0.142E-04    0.382E-04
DAV:  30    -0.578905150485E+03   -0.56364E-05   -0.93119E-09 10898   0.112E-04    0.352E-04
DAV:  31    -0.578905153196E+03   -0.27113E-05   -0.68452E-09 10704   0.962E-05    0.342E-04
DAV:  32    -0.578905155396E+03   -0.21998E-05   -0.72609E-09 10464   0.102E-04    0.336E-04
DAV:  33    -0.578905156446E+03   -0.10501E-05   -0.51203E-09 10756   0.852E-05    0.325E-04
DAV:  34    -0.578905156816E+03   -0.37020E-06   -0.25400E-09 10278   0.578E-05
  13 F= -.60970341E+03 E0= -.60966448E+03  d E =-.179788E-01  mag=    16.7043
       N       E                     dE             d eps       ncg     rms          rms(c)
DAV:   1    -0.578845604189E+03    0.59552E-01   -0.54185E+00 21927   0.601E+00    0.479E-01
DAV:   2    -0.578905252743E+03   -0.59649E-01   -0.64103E-01 17088   0.107E+00    0.313E-01
DAV:   3    -0.578905371826E+03   -0.11908E-03   -0.97037E-03 17418   0.185E-01    0.317E-01
DAV:   4    -0.578907265339E+03   -0.18935E-02   -0.54419E-03 18279   0.179E-01    0.461E-01
DAV:   5    -0.578906555011E+03    0.71033E-03   -0.84079E-03 18172   0.218E-01    0.363E-01
DAV:   6    -0.578904978890E+03    0.15761E-02   -0.18240E-03 17349   0.878E-02    0.176E-01
DAV:   7    -0.578904842131E+03    0.13676E-03   -0.60300E-04 17294   0.671E-02    0.136E-01
DAV:   8    -0.578904667076E+03    0.17506E-03   -0.29112E-04 17340   0.445E-02    0.657E-02
DAV:   9    -0.578904632162E+03    0.34914E-04   -0.66726E-05 17154   0.241E-02    0.236E-02
DAV:  10    -0.578904644202E+03   -0.12040E-04   -0.19453E-05 16298   0.120E-02    0.206E-02
DAV:  11    -0.578904658930E+03   -0.14727E-04   -0.93701E-06 15893   0.832E-03    0.148E-02
DAV:  12    -0.578904680484E+03   -0.21554E-04   -0.68329E-06 15836   0.638E-03    0.532E-03
DAV:  13    -0.578904697193E+03   -0.16709E-04   -0.12859E-06 11874   0.280E-03    0.340E-03
DAV:  14    -0.578904710897E+03   -0.13705E-04   -0.51068E-07 10549   0.190E-03    0.454E-03
DAV:  15    -0.578904725675E+03   -0.14777E-04   -0.25612E-07 11197   0.137E-03    0.273E-03
DAV:  16    -0.578904748326E+03   -0.22651E-04   -0.17669E-07 10662   0.627E-04    0.180E-03
DAV:  17    -0.578904763947E+03   -0.15621E-04   -0.72694E-08 10778   0.597E-04    0.135E-03
DAV:  18    -0.578904782063E+03   -0.18116E-04   -0.62398E-08 10588   0.420E-04    0.143E-03
DAV:  19    -0.578904812534E+03   -0.30471E-04   -0.12192E-07 10964   0.470E-04    0.142E-03
DAV:  20    -0.578904863267E+03   -0.50734E-04   -0.30844E-07 11100   0.540E-04    0.150E-03
DAV:  21    -0.578904892287E+03   -0.29020E-04   -0.14123E-07 10980   0.523E-04    0.991E-04
DAV:  22    -0.578904918549E+03   -0.26261E-04   -0.12108E-07 10715   0.456E-04    0.832E-04
DAV:  23    -0.578904940477E+03   -0.21928E-04   -0.85213E-08 11109   0.426E-04    0.537E-04
DAV:  24    -0.578904954159E+03   -0.13682E-04   -0.33975E-08 11125   0.302E-04    0.709E-04
DAV:  25    -0.578904963790E+03   -0.96315E-05   -0.20159E-08 10491   0.219E-04    0.694E-04
DAV:  26    -0.578904968028E+03   -0.42375E-05   -0.98176E-09 10434   0.173E-04    0.516E-04
DAV:  27    -0.578904970663E+03   -0.26354E-05   -0.56348E-09 10412   0.132E-04    0.355E-04
DAV:  28    -0.578904972409E+03   -0.17455E-05   -0.35351E-09 10391   0.978E-05    0.311E-04
DAV:  29    -0.578904974345E+03   -0.19362E-05   -0.37981E-09 10430   0.753E-05    0.297E-04
DAV:  30    -0.578904974862E+03   -0.51712E-06   -0.12644E-09 10252   0.576E-05
  14 F= -.60971296E+03 E0= -.60967385E+03  d E =-.954926E-02  mag=    16.6841
       N       E                     dE             d eps       ncg     rms          rms(c)
DAV:   1    -0.578752932345E+03    0.15204E+00   -0.12981E+01 21899   0.931E+00    0.742E-01
DAV:   2    -0.578896328579E+03   -0.14340E+00   -0.15380E+00 17000   0.165E+00    0.493E-01
DAV:   3    -0.578897941756E+03   -0.16132E-02   -0.26200E-02 17423   0.307E-01    0.599E-01
DAV:   4    -0.578903580226E+03   -0.56385E-02   -0.23772E-02 18436   0.345E-01    0.816E-01
DAV:   5    -0.578897097175E+03    0.64831E-02   -0.22064E-02 18230   0.327E-01    0.426E-01
DAV:   6    -0.578895601962E+03    0.14952E-02   -0.35896E-03 17205   0.115E-01    0.276E-01
DAV:   7    -0.578895166446E+03    0.43552E-03   -0.12134E-03 17269   0.103E-01    0.203E-01
DAV:   8    -0.578894796126E+03    0.37032E-03   -0.49098E-04 17442   0.670E-02    0.103E-01
DAV:   9    -0.578894705140E+03    0.90986E-04   -0.17138E-04 17393   0.373E-02    0.383E-02
DAV:  10    -0.578894732484E+03   -0.27344E-04   -0.49852E-05 17002   0.196E-02    0.319E-02
DAV:  11    -0.578894763124E+03   -0.30640E-04   -0.22776E-05 15920   0.132E-02    0.216E-02
DAV:  12    -0.578894814681E+03   -0.51557E-04   -0.13980E-05 16399   0.925E-03    0.881E-03
DAV:  13    -0.578894857328E+03   -0.42647E-04   -0.33324E-06 14144   0.440E-03    0.452E-03
DAV:  14    -0.578894893016E+03   -0.35688E-04   -0.12190E-06 11224   0.294E-03    0.684E-03
DAV:  15    -0.578894926369E+03   -0.33353E-04   -0.60182E-07 11223   0.213E-03    0.428E-03
DAV:  16    -0.578894976300E+03   -0.49931E-04   -0.41559E-07 11014   0.948E-04    0.271E-03
DAV:  17    -0.578895010072E+03   -0.33772E-04   -0.15952E-07 10916   0.929E-04    0.192E-03
DAV:  18    -0.578895048920E+03   -0.38848E-04   -0.14985E-07 10754   0.631E-04    0.200E-03
DAV:  19    -0.578895105044E+03   -0.56124E-04   -0.21947E-07 11132   0.684E-04    0.198E-03
DAV:  20    -0.578895195908E+03   -0.90864E-04   -0.54330E-07 11252   0.763E-04    0.211E-03
DAV:  21    -0.578895260487E+03   -0.64578E-04   -0.36266E-07 11288   0.773E-04    0.142E-03
DAV:  22    -0.578895311302E+03   -0.50815E-04   -0.24759E-07 11050   0.684E-04    0.120E-03
DAV:  23    -0.578895351825E+03   -0.40523E-04   -0.16757E-07 11127   0.565E-04    0.101E-03
DAV:  24    -0.578895378558E+03   -0.26734E-04   -0.84855E-08 10595   0.543E-04    0.587E-04
DAV:  25    -0.578895400435E+03   -0.21876E-04   -0.59210E-08 10989   0.362E-04    0.460E-04
DAV:  26    -0.578895409536E+03   -0.91016E-05   -0.28573E-08 11184   0.277E-04    0.683E-04
DAV:  27    -0.578895415553E+03   -0.60170E-05   -0.19436E-08 10517   0.200E-04    0.728E-04
DAV:  28    -0.578895417474E+03   -0.19209E-05   -0.84298E-09 10625   0.146E-04    0.542E-04
DAV:  29    -0.578895418931E+03   -0.14566E-05   -0.86758E-09 10474   0.165E-04    0.287E-04
DAV:  30    -0.578895419391E+03   -0.46007E-06   -0.37783E-09 10436   0.100E-04
  15 F= -.60971847E+03 E0= -.60967908E+03  d E =-.150585E-01  mag=    16.6534
       N       E                     dE             d eps       ncg     rms          rms(c)
DAV:   1    -0.578837312080E+03    0.58107E-01   -0.80905E+00 19138   0.582E+00    0.521E-01
DAV:   2    -0.578895759969E+03   -0.58448E-01   -0.60448E-01 16985   0.106E+00    0.430E-01
DAV:   3    -0.578930586284E+03   -0.34826E-01   -0.94593E-02 17485   0.590E-01    0.169E+00
DAV:   4    -0.578893646899E+03    0.36939E-01   -0.61665E-02 17670   0.433E-01    0.291E-01
DAV:   5    -0.578892942519E+03    0.70438E-03   -0.27966E-03 17606   0.108E-01    0.199E-01
DAV:   6    -0.578892855743E+03    0.86776E-04   -0.10550E-03 17264   0.833E-02    0.156E-01
DAV:   7    -0.578892885376E+03   -0.29634E-04   -0.59958E-04 17148   0.685E-02    0.158E-01
DAV:   8    -0.578892675288E+03    0.21009E-03   -0.28536E-04 17008   0.475E-02    0.818E-02
DAV:   9    -0.578892592033E+03    0.83256E-04   -0.75023E-05 17267   0.286E-02    0.253E-02
DAV:  10    -0.578892602156E+03   -0.10123E-04   -0.29617E-05 16266   0.140E-02    0.254E-02
DAV:  11    -0.578892607828E+03   -0.56718E-05   -0.80320E-06 15160   0.858E-03    0.111E-02
DAV:  12    -0.578892620272E+03   -0.12444E-04   -0.25162E-06 13810   0.408E-03    0.712E-03
DAV:  13    -0.578892636086E+03   -0.15814E-04   -0.16659E-06 11349   0.313E-03    0.449E-03
DAV:  14    -0.578892645356E+03   -0.92704E-05   -0.66207E-07 10930   0.222E-03    0.363E-03
DAV:  15    -0.578892655776E+03   -0.10420E-04   -0.25557E-07 10626   0.135E-03    0.168E-03
DAV:  16    -0.578892670638E+03   -0.14863E-04   -0.12670E-07 10813   0.726E-04    0.183E-03
DAV:  17    -0.578892682459E+03   -0.11820E-04   -0.68314E-08 10984   0.593E-04    0.143E-03
DAV:  18    -0.578892699093E+03   -0.16634E-04   -0.82350E-08 11050   0.519E-04    0.132E-03
DAV:  19    -0.578892715122E+03   -0.16029E-04   -0.78475E-08 10762   0.437E-04    0.110E-03
DAV:  20    -0.578892737225E+03   -0.22103E-04   -0.12829E-07 11080   0.483E-04    0.129E-03
DAV:  21    -0.578892759915E+03   -0.22690E-04   -0.17129E-07 11072   0.487E-04    0.127E-03
DAV:  22    -0.578892780575E+03   -0.20660E-04   -0.17561E-07 10905   0.446E-04    0.105E-03
DAV:  23    -0.578892792138E+03   -0.11563E-04   -0.85576E-08 10772   0.371E-04    0.709E-04
DAV:  24    -0.578892801122E+03   -0.89838E-05   -0.57772E-08 10558   0.298E-04    0.468E-04
DAV:  25    -0.578892808176E+03   -0.70541E-05   -0.28463E-08 10749   0.216E-04    0.435E-04
DAV:  26    -0.578892810680E+03   -0.25046E-05   -0.98086E-09 10070   0.159E-04    0.403E-04
DAV:  27    -0.578892814878E+03   -0.41975E-05   -0.70639E-09 10101   0.120E-04    0.350E-04
DAV:  28    -0.578892818249E+03   -0.33712E-05   -0.55255E-09 10391   0.124E-04    0.369E-04
DAV:  29    -0.578892821876E+03   -0.36273E-05   -0.60812E-09 10260   0.117E-04    0.351E-04
DAV:  30    -0.578892823890E+03   -0.20135E-05   -0.35994E-09 10690   0.934E-05    0.320E-04
DAV:  31    -0.578892825595E+03   -0.17055E-05   -0.35394E-09 10541   0.848E-05    0.317E-04
DAV:  32    -0.578892826223E+03   -0.62748E-06   -0.17783E-09  9950   0.580E-05
  16 F= -.60972585E+03 E0= -.60968637E+03  d E =-.737785E-02  mag=    16.6394
       N       E                     dE             d eps       ncg     rms          rms(c)
DAV:   1    -0.578878272870E+03    0.14553E-01   -0.16174E+00 19230   0.260E+00    0.233E-01
DAV:   2    -0.578889931140E+03   -0.11658E-01   -0.12074E-01 17120   0.472E-01    0.197E-01
DAV:   3    -0.578896858129E+03   -0.69270E-02   -0.10933E-02 17510   0.268E-01    0.746E-01
DAV:   4    -0.578889439267E+03    0.74189E-02   -0.55207E-03 17392   0.193E-01    0.128E-01
DAV:   5    -0.578889357269E+03    0.81998E-04   -0.46663E-04 17338   0.482E-02    0.909E-02
DAV:   6    -0.578889353744E+03    0.35251E-05   -0.22764E-04 17039   0.392E-02    0.748E-02
DAV:   7    -0.578889361474E+03   -0.77300E-05   -0.13399E-04 17143   0.299E-02    0.708E-02
DAV:   8    -0.578889312960E+03    0.48514E-04   -0.69221E-05 16951   0.218E-02    0.364E-02
DAV:   9    -0.578889296039E+03    0.16921E-04   -0.16346E-05 16283   0.128E-02    0.103E-02
DAV:  10    -0.578889300052E+03   -0.40126E-05   -0.58741E-06 15690   0.604E-03    0.115E-02
DAV:  11    -0.578889301670E+03   -0.16182E-05   -0.14703E-06 11351   0.379E-03    0.471E-03
DAV:  12    -0.578889304434E+03   -0.27646E-05   -0.57116E-07 11016   0.191E-03    0.289E-03
DAV:  13    -0.578889307633E+03   -0.31984E-05   -0.32504E-07 10346   0.136E-03    0.175E-03
DAV:  14    -0.578889309733E+03   -0.21001E-05   -0.12375E-07 10594   0.917E-04    0.156E-03
DAV:  15    -0.578889312281E+03   -0.25479E-05   -0.44231E-08 10378   0.541E-04    0.866E-04
DAV:  16    -0.578889316311E+03   -0.40305E-05   -0.27080E-08 10728   0.324E-04    0.885E-04
DAV:  17    -0.578889319972E+03   -0.36608E-05   -0.17291E-08 10752   0.288E-04    0.714E-04
DAV:  18    -0.578889324340E+03   -0.43681E-05   -0.18034E-08 10658   0.242E-04    0.705E-04
DAV:  19    -0.578889329283E+03   -0.49425E-05   -0.20409E-08 10746   0.207E-04    0.596E-04
DAV:  20    -0.578889335764E+03   -0.64815E-05   -0.32677E-08 10518   0.253E-04    0.718E-04
DAV:  21    -0.578889343182E+03   -0.74180E-05   -0.48686E-08 10898   0.246E-04    0.753E-04
DAV:  22    -0.578889348373E+03   -0.51907E-05   -0.33483E-08 10540   0.214E-04    0.595E-04
DAV:  23    -0.578889351832E+03   -0.34594E-05   -0.20644E-08 10489   0.186E-04    0.426E-04
DAV:  24    -0.578889354487E+03   -0.26547E-05   -0.14063E-08 10267   0.151E-04    0.356E-04
DAV:  25    -0.578889357018E+03   -0.25304E-05   -0.80486E-09 10709   0.893E-05    0.352E-04
DAV:  26    -0.578889357873E+03   -0.85495E-06   -0.28155E-09 10456   0.694E-05
  17 F= -.60972684E+03 E0= -.60968732E+03  d E =-.836747E-02  mag=    16.6330
       N       E                     dE             d eps       ncg     rms          rms(c)
DAV:   1    -0.578824940231E+03    0.64417E-01   -0.65936E+00 20541   0.637E+00    0.524E-01
DAV:   2    -0.578902551305E+03   -0.77611E-01   -0.72039E-01 16952   0.118E+00    0.893E-01
DAV:   3    -0.578903264986E+03   -0.71368E-03   -0.92042E-02 17169   0.599E-01    0.112E+00
DAV:   4    -0.578890149349E+03    0.13116E-01   -0.17345E-02 17422   0.252E-01    0.319E-01
DAV:   5    -0.578889345146E+03    0.80420E-03   -0.21713E-03 17338   0.124E-01    0.222E-01
DAV:   6    -0.578889352767E+03   -0.76210E-05   -0.17545E-03 17617   0.113E-01    0.169E-01
DAV:   7    -0.578889334429E+03    0.18339E-04   -0.71193E-04 17366   0.763E-02    0.155E-01
DAV:   8    -0.578889217224E+03    0.11721E-03   -0.20778E-04 17474   0.358E-02    0.999E-02
DAV:   9    -0.578889091822E+03    0.12540E-03   -0.94919E-05 16850   0.267E-02    0.272E-02
DAV:  10    -0.578889104220E+03   -0.12398E-04   -0.29485E-05 16295   0.136E-02    0.189E-02
DAV:  11    -0.578889107171E+03   -0.29511E-05   -0.69527E-06 15210   0.733E-03    0.117E-02
DAV:  12    -0.578889114667E+03   -0.74953E-05   -0.21571E-06 12044   0.472E-03    0.716E-03
DAV:  13    -0.578889120656E+03   -0.59891E-05   -0.11369E-06 11154   0.310E-03    0.322E-03
DAV:  14    -0.578889127475E+03   -0.68196E-05   -0.69292E-07 10908   0.192E-03    0.288E-03
DAV:  15    -0.578889129815E+03   -0.23392E-05   -0.23288E-07 10397   0.130E-03    0.184E-03
DAV:  16    -0.578889133597E+03   -0.37819E-05   -0.68524E-08 10536   0.644E-04    0.142E-03
DAV:  17    -0.578889138538E+03   -0.49411E-05   -0.52593E-08 10957   0.500E-04    0.129E-03
DAV:  18    -0.578889141785E+03   -0.32473E-05   -0.61286E-08 10944   0.544E-04    0.141E-03
DAV:  19    -0.578889142346E+03   -0.56089E-06   -0.34707E-08 10720   0.421E-04
  18 F= -.60973450E+03 E0= -.60969498E+03  d E =-.765984E-02  mag=    16.6382
       N       E                     dE             d eps       ncg     rms          rms(c)
DAV:   1    -0.578293359867E+03    0.59578E+00   -0.59321E+01 20372   0.191E+01    0.157E+00
DAV:   2    -0.578988848104E+03   -0.69549E+00   -0.65782E+00 17175   0.356E+00    0.257E+00
DAV:   3    -0.579017802617E+03   -0.28955E-01   -0.76087E-01 17276   0.169E+00    0.362E+00
DAV:   4    -0.578887747372E+03    0.13006E+00   -0.16874E-01 17334   0.808E-01    0.103E+00
DAV:   5    -0.578878054603E+03    0.96928E-02   -0.23239E-02 17313   0.382E-01    0.662E-01
DAV:   6    -0.578876152599E+03    0.19020E-02   -0.11815E-02 17498   0.280E-01    0.372E-01
DAV:   7    -0.578877186318E+03   -0.10337E-02   -0.55845E-03 17329   0.210E-01    0.422E-01
DAV:   8    -0.578876635415E+03    0.55090E-03   -0.22712E-03 17144   0.125E-01    0.307E-01
DAV:   9    -0.578875759208E+03    0.87621E-03   -0.86930E-04 17906   0.720E-02    0.129E-01
DAV:  10    -0.578875711602E+03    0.47606E-04   -0.30995E-04 17272   0.542E-02    0.647E-02
DAV:  11    -0.578875728358E+03   -0.16756E-04   -0.94639E-05 17215   0.245E-02    0.373E-02
DAV:  12    -0.578875787358E+03   -0.59001E-04   -0.22008E-05 16510   0.146E-02    0.230E-02
DAV:  13    -0.578875835385E+03   -0.48026E-04   -0.11196E-05 16467   0.940E-03    0.129E-02
DAV:  14    -0.578875884136E+03   -0.48751E-04   -0.64166E-06 15615   0.633E-03    0.106E-02
DAV:  15    -0.578875899896E+03   -0.15760E-04   -0.24696E-06 12289   0.448E-03    0.759E-03
DAV:  16    -0.578875924231E+03   -0.24334E-04   -0.12850E-06 11661   0.273E-03    0.619E-03
DAV:  17    -0.578875941327E+03   -0.17097E-04   -0.87995E-07 11533   0.212E-03    0.525E-03
DAV:  18    -0.578875948875E+03   -0.75479E-05   -0.60424E-07 11191   0.197E-03    0.554E-03
DAV:  19    -0.578875941802E+03    0.70727E-05   -0.42142E-07 10984   0.158E-03    0.465E-03
DAV:  20    -0.578875902459E+03    0.39344E-04   -0.41358E-07 10898   0.181E-03    0.332E-03
DAV:  21    -0.578875845202E+03    0.57256E-04   -0.44112E-07 11272   0.161E-03    0.304E-03
DAV:  22    -0.578875818524E+03    0.26679E-04   -0.25364E-07 10753   0.134E-03    0.234E-03
DAV:  23    -0.578875809942E+03    0.85819E-05   -0.23576E-07 11066   0.102E-03    0.208E-03
DAV:  24    -0.578875814067E+03   -0.41258E-05   -0.11874E-07 10778   0.827E-04    0.129E-03
DAV:  25    -0.578875832672E+03   -0.18604E-04   -0.11433E-07 10959   0.519E-04    0.139E-03
DAV:  26    -0.578875850821E+03   -0.18149E-04   -0.74506E-08 11232   0.406E-04    0.132E-03
DAV:  27    -0.578875886185E+03   -0.35363E-04   -0.15429E-07 10985   0.427E-04    0.921E-04
DAV:  28    -0.578875923244E+03   -0.37060E-04   -0.12050E-07 10929   0.399E-04    0.896E-04
DAV:  29    -0.578875960328E+03   -0.37084E-04   -0.94623E-08 11117   0.331E-04    0.808E-04
DAV:  30    -0.578875990841E+03   -0.30513E-04   -0.60883E-08 10886   0.300E-04    0.766E-04
DAV:  31    -0.578876033591E+03   -0.42750E-04   -0.12018E-07 11224   0.291E-04    0.672E-04
DAV:  32    -0.578876052662E+03   -0.19072E-04   -0.40118E-08 10750   0.222E-04    0.627E-04
DAV:  33    -0.578876062792E+03   -0.10129E-04   -0.18962E-08 10840   0.160E-04    0.579E-04
DAV:  34    -0.578876072272E+03   -0.94799E-05   -0.15872E-08 10612   0.131E-04    0.574E-04
DAV:  35    -0.578876076288E+03   -0.40166E-05   -0.89579E-09 10629   0.110E-04    0.566E-04
DAV:  36    -0.578876077802E+03   -0.15141E-05   -0.40446E-09 10722   0.717E-05    0.561E-04
DAV:  37    -0.578876078502E+03   -0.69966E-06   -0.25147E-09 10669   0.531E-05
  19 F= -.60974511E+03 E0= -.60970561E+03  d E =-.182777E-01  mag=    16.6709
       N       E                     dE             d eps       ncg     rms          rms(c)
DAV:   1    -0.578809161955E+03    0.66916E-01   -0.68967E+00 19690   0.616E+00    0.499E-01
DAV:   2    -0.578877254915E+03   -0.68093E-01   -0.70385E-01 17084   0.112E+00    0.513E-01
DAV:   3    -0.578905214005E+03   -0.27959E-01   -0.84621E-02 17295   0.592E-01    0.160E+00
DAV:   4    -0.578873614953E+03    0.31599E-01   -0.42110E-02 17478   0.395E-01    0.292E-01
DAV:   5    -0.578873346650E+03    0.26830E-03   -0.23310E-03 17542   0.105E-01    0.237E-01
DAV:   6    -0.578873222855E+03    0.12380E-03   -0.18603E-03 17928   0.125E-01    0.177E-01
DAV:   7    -0.578872981354E+03    0.24150E-03   -0.68147E-04 17153   0.731E-02    0.129E-01
DAV:   8    -0.578872940236E+03    0.41117E-04   -0.23509E-04 17064   0.376E-02    0.842E-02
DAV:   9    -0.578872850477E+03    0.89760E-04   -0.69075E-05 16979   0.275E-02    0.241E-02
DAV:  10    -0.578872857207E+03   -0.67304E-05   -0.24181E-05 16420   0.144E-02    0.138E-02
DAV:  11    -0.578872863397E+03   -0.61898E-05   -0.70461E-06 16368   0.735E-03    0.149E-02
DAV:  12    -0.578872869036E+03   -0.56394E-05   -0.28591E-06 12276   0.521E-03    0.679E-03
DAV:  13    -0.578872877706E+03   -0.86697E-05   -0.11714E-06 10842   0.285E-03    0.322E-03
DAV:  14    -0.578872888916E+03   -0.11210E-04   -0.53661E-07 10997   0.172E-03    0.236E-03
DAV:  15    -0.578872894418E+03   -0.55025E-05   -0.20124E-07 10546   0.122E-03    0.187E-03
DAV:  16    -0.578872901760E+03   -0.73416E-05   -0.82405E-08 10548   0.732E-04    0.122E-03
DAV:  17    -0.578872910846E+03   -0.90864E-05   -0.42962E-08 10636   0.422E-04    0.909E-04
DAV:  18    -0.578872918544E+03   -0.76978E-05   -0.27816E-08 10644   0.361E-04    0.969E-04
DAV:  19    -0.578872928141E+03   -0.95966E-05   -0.29551E-08 10750   0.274E-04    0.800E-04
DAV:  20    -0.578872938706E+03   -0.10565E-04   -0.32463E-08 10905   0.248E-04    0.722E-04
DAV:  21    -0.578872949904E+03   -0.11198E-04   -0.39048E-08 10945   0.207E-04    0.783E-04
DAV:  22    -0.578872956269E+03   -0.63656E-05   -0.19418E-08 10839   0.184E-04    0.735E-04
DAV:  23    -0.578872965633E+03   -0.93640E-05   -0.43932E-08 10913   0.172E-04    0.640E-04
DAV:  24    -0.578872969257E+03   -0.36238E-05   -0.14662E-08 10178   0.142E-04    0.632E-04
DAV:  25    -0.578872972039E+03   -0.27819E-05   -0.12446E-08 10896   0.991E-05    0.612E-04
DAV:  26    -0.578872973052E+03   -0.10130E-05   -0.41981E-09 10408   0.720E-05    0.612E-04
DAV:  27    -0.578872974064E+03   -0.10114E-05   -0.39174E-09  9943   0.662E-05    0.608E-04
DAV:  28    -0.578872974546E+03   -0.48289E-06   -0.16082E-09 10645   0.446E-05
  20 F= -.60975170E+03 E0= -.60971210E+03  d E =-.659004E-02  mag=    16.6684
       N       E                     dE             d eps       ncg     rms          rms(c)
DAV:   1    -0.578272278610E+03    0.60070E+00   -0.62047E+01 19724   0.185E+01    0.150E+00
DAV:   2    -0.578887147942E+03   -0.61487E+00   -0.63846E+00 17057   0.336E+00    0.144E+00
DAV:   3    -0.579165709750E+03   -0.27856E+00   -0.87288E-01 17429   0.169E+00    0.527E+00
DAV:   4    -0.578860641561E+03    0.30507E+00   -0.75527E-01 17624   0.123E+00    0.917E-01
DAV:   5    -0.578855628386E+03    0.50132E-02   -0.25216E-02 17265   0.339E-01    0.736E-01
DAV:   6    -0.578851792147E+03    0.38362E-02   -0.10384E-02 17437   0.291E-01    0.386E-01
DAV:   7    -0.578851733557E+03    0.58589E-04   -0.68165E-03 17347   0.195E-01    0.392E-01
DAV:   8    -0.578852244515E+03   -0.51096E-03   -0.39345E-03 17440   0.139E-01    0.322E-01
DAV:   9    -0.578851304094E+03    0.94042E-03   -0.12639E-03 17328   0.831E-02    0.158E-01
DAV:  10    -0.578851077720E+03    0.22637E-03   -0.42778E-04 17592   0.651E-02    0.418E-02
DAV:  11    -0.578851147793E+03   -0.70074E-04   -0.14085E-04 17106   0.282E-02    0.532E-02
DAV:  12    -0.578851181122E+03   -0.33329E-04   -0.37344E-05 16178   0.174E-02    0.284E-02
DAV:  13    -0.578851239241E+03   -0.58119E-04   -0.12277E-05 16357   0.962E-03    0.165E-02
DAV:  14    -0.578851344445E+03   -0.10520E-03   -0.80582E-06 15711   0.620E-03    0.886E-03
DAV:  15    -0.578851395799E+03   -0.51353E-04   -0.30668E-06 13013   0.503E-03    0.779E-03
DAV:  16    -0.578851448643E+03   -0.52844E-04   -0.15181E-06 11714   0.331E-03    0.445E-03
DAV:  17    -0.578851511637E+03   -0.62994E-04   -0.68773E-07 11376   0.192E-03    0.299E-03
DAV:  18    -0.578851580600E+03   -0.68963E-04   -0.42831E-07 11090   0.141E-03    0.320E-03
DAV:  19    -0.578851637076E+03   -0.56476E-04   -0.28149E-07 11213   0.109E-03    0.257E-03
DAV:  20    -0.578851739956E+03   -0.10288E-03   -0.50844E-07 11343   0.795E-04    0.188E-03
DAV:  21    -0.578851826652E+03   -0.86695E-04   -0.43720E-07 11581   0.816E-04    0.157E-03
DAV:  22    -0.578851880556E+03   -0.53904E-04   -0.24790E-07 11146   0.782E-04    0.156E-03
DAV:  23    -0.578851922522E+03   -0.41966E-04   -0.22919E-07 11372   0.663E-04    0.139E-03
DAV:  24    -0.578851947641E+03   -0.25120E-04   -0.14797E-07 10991   0.571E-04    0.108E-03
DAV:  25    -0.578851955907E+03   -0.82662E-05   -0.63111E-08 11157   0.430E-04    0.865E-04
DAV:  26    -0.578851957288E+03   -0.13809E-05   -0.32156E-08 10648   0.261E-04    0.846E-04
DAV:  27    -0.578851956253E+03    0.10352E-05   -0.17378E-08 10465   0.211E-04    0.759E-04
DAV:  28    -0.578851955391E+03    0.86264E-06   -0.10114E-08 10397   0.145E-04
  21 F= -.60975980E+03 E0= -.60971990E+03  d E =-.146818E-01  mag=    16.6579
       N       E                     dE             d eps       ncg     rms          rms(c)
DAV:   1    -0.578772594221E+03    0.79362E-01   -0.59815E+00 21886   0.653E+00    0.495E-01
DAV:   2    -0.578844183367E+03   -0.71589E-01   -0.77094E-01 17049   0.115E+00    0.301E-01
DAV:   3    -0.578853682216E+03   -0.94988E-02   -0.16395E-02 17305   0.346E-01    0.864E-01
DAV:   4    -0.578843298671E+03    0.10384E-01   -0.72638E-03 17211   0.249E-01    0.210E-01
DAV:   5    -0.578843433116E+03   -0.13445E-03   -0.15082E-03 17321   0.110E-01    0.167E-01
DAV:   6    -0.578843585033E+03   -0.15192E-03   -0.10925E-03 17247   0.782E-02    0.170E-01
DAV:   7    -0.578843613303E+03   -0.28270E-04   -0.56664E-04 17240   0.655E-02    0.152E-01
DAV:   8    -0.578843329368E+03    0.28393E-03   -0.19314E-04 17196   0.474E-02    0.616E-02
DAV:   9    -0.578843310231E+03    0.19137E-04   -0.83252E-05 16810   0.236E-02    0.328E-02
DAV:  10    -0.578843314167E+03   -0.39353E-05   -0.21434E-05 16594   0.137E-02    0.123E-02
DAV:  11    -0.578843322249E+03   -0.80820E-05   -0.58365E-06 15260   0.611E-03    0.107E-02
DAV:  12    -0.578843329569E+03   -0.73207E-05   -0.24070E-06 12915   0.419E-03    0.722E-03
DAV:  13    -0.578843340538E+03   -0.10969E-04   -0.13165E-06 11350   0.284E-03    0.324E-03
DAV:  14    -0.578843352563E+03   -0.12025E-04   -0.61187E-07 10727   0.205E-03    0.393E-03
DAV:  15    -0.578843361248E+03   -0.86850E-05   -0.29875E-07 10521   0.151E-03    0.223E-03
DAV:  16    -0.578843372513E+03   -0.11265E-04   -0.10736E-07 10647   0.719E-04    0.180E-03
DAV:  17    -0.578843386549E+03   -0.14036E-04   -0.72389E-08 10556   0.524E-04    0.127E-03
DAV:  18    -0.578843397281E+03   -0.10732E-04   -0.48660E-08 11101   0.418E-04    0.117E-03
DAV:  19    -0.578843410808E+03   -0.13527E-04   -0.45213E-08 10353   0.309E-04    0.998E-04
DAV:  20    -0.578843428746E+03   -0.17938E-04   -0.51891E-08 10767   0.284E-04    0.109E-03
DAV:  21    -0.578843446860E+03   -0.18114E-04   -0.51239E-08 11069   0.260E-04    0.116E-03
DAV:  22    -0.578843464561E+03   -0.17701E-04   -0.52911E-08 10545   0.256E-04    0.103E-03
DAV:  23    -0.578843486057E+03   -0.21496E-04   -0.83095E-08 11050   0.264E-04    0.902E-04
DAV:  24    -0.578843496734E+03   -0.10678E-04   -0.30713E-08 10928   0.205E-04    0.827E-04
DAV:  25    -0.578843510556E+03   -0.13822E-04   -0.46277E-08 10903   0.173E-04    0.803E-04
DAV:  26    -0.578843514957E+03   -0.44010E-05   -0.12652E-08 10738   0.136E-04    0.797E-04
DAV:  27    -0.578843518342E+03   -0.33849E-05   -0.97798E-09 10567   0.100E-04    0.783E-04
DAV:  28    -0.578843519539E+03   -0.11977E-05   -0.39700E-09 10568   0.925E-05    0.778E-04
DAV:  29    -0.578843520055E+03   -0.51572E-06   -0.28889E-09 10498   0.757E-05
  22 F= -.60976285E+03 E0= -.60972285E+03  d E =-.304945E-02  mag=    16.6473
       N       E                     dE             d eps       ncg     rms          rms(c)
DAV:   1    -0.578829403794E+03    0.14116E-01   -0.84140E-01 21956   0.245E+00    0.186E-01
DAV:   2    -0.578839447968E+03   -0.10044E-01   -0.10835E-01 17059   0.430E-01    0.113E-01
DAV:   3    -0.578841141430E+03   -0.16935E-02   -0.22895E-03 17269   0.142E-01    0.360E-01
DAV:   4    -0.578839309578E+03    0.18319E-02   -0.10303E-03 17246   0.101E-01    0.779E-02
DAV:   5    -0.578839330023E+03   -0.20446E-04   -0.21624E-04 17478   0.424E-02    0.630E-02
DAV:   6    -0.578839358102E+03   -0.28079E-04   -0.15009E-04 17098   0.300E-02    0.666E-02
DAV:   7    -0.578839362948E+03   -0.48459E-05   -0.80277E-05 17201   0.245E-02    0.593E-02
DAV:   8    -0.578839323582E+03    0.39366E-04   -0.26797E-05 16586   0.181E-02    0.240E-02
DAV:   9    -0.578839320001E+03    0.35807E-05   -0.12559E-05 15917   0.940E-03    0.123E-02
DAV:  10    -0.578839321346E+03   -0.13451E-05   -0.32151E-06 13157   0.534E-03    0.563E-03
DAV:  11    -0.578839323039E+03   -0.16934E-05   -0.84610E-07 10631   0.250E-03    0.409E-03
DAV:  12    -0.578839324735E+03   -0.16955E-05   -0.36989E-07 10289   0.167E-03    0.257E-03
DAV:  13    -0.578839326992E+03   -0.22575E-05   -0.18200E-07 10444   0.100E-03    0.137E-03
DAV:  14    -0.578839329084E+03   -0.20913E-05   -0.94911E-08 10743   0.767E-04    0.167E-03
DAV:  15    -0.578839330727E+03   -0.16433E-05   -0.45932E-08 10370   0.569E-04    0.110E-03
DAV:  16    -0.578839332987E+03   -0.22596E-05   -0.16410E-08 10078   0.266E-04    0.997E-04
DAV:  17    -0.578839336012E+03   -0.30259E-05   -0.11549E-08 10903   0.195E-04    0.877E-04
DAV:  18    -0.578839338587E+03   -0.25749E-05   -0.86912E-09 10512   0.162E-04    0.863E-04
DAV:  19    -0.578839341435E+03   -0.28478E-05   -0.75926E-09 10522   0.126E-04    0.832E-04
DAV:  20    -0.578839346519E+03   -0.50843E-05   -0.12770E-08 10714   0.130E-04    0.858E-04
DAV:  21    -0.578839351527E+03   -0.50073E-05   -0.13497E-08 10778   0.120E-04    0.874E-04
DAV:  22    -0.578839355856E+03   -0.43297E-05   -0.11131E-08 10706   0.120E-04    0.834E-04
DAV:  23    -0.578839362338E+03   -0.64815E-05   -0.26085E-08 10938   0.129E-04    0.794E-04
DAV:  24    -0.578839364555E+03   -0.22165E-05   -0.60640E-09 10666   0.912E-05    0.789E-04
DAV:  25    -0.578839367134E+03   -0.25793E-05   -0.66343E-09 10626   0.698E-05    0.784E-04
DAV:  26    -0.578839367958E+03   -0.82422E-06   -0.22577E-09 10536   0.542E-05
  23 F= -.60976300E+03 E0= -.60972296E+03  d E =-.320556E-02  mag=    16.6426
       N       E                     dE             d eps       ncg     rms          rms(c)
DAV:   1    -0.578808867135E+03    0.30500E-01   -0.20402E+00 20380   0.328E+00    0.272E-01
DAV:   2    -0.578834967267E+03   -0.26100E-01   -0.24932E-01 17077   0.616E-01    0.546E-01
DAV:   3    -0.578838471873E+03   -0.35046E-02   -0.21172E-02 18229   0.330E-01    0.637E-01
DAV:   4    -0.578832515529E+03    0.59563E-02   -0.11803E-02 17708   0.228E-01    0.228E-01
DAV:   5    -0.578832011839E+03    0.50369E-03   -0.69318E-04 17589   0.609E-02    0.942E-02
DAV:   6    -0.578831948870E+03    0.62970E-04   -0.28020E-04 17467   0.472E-02    0.809E-02
DAV:   7    -0.578831821282E+03    0.12759E-03   -0.19316E-04 17378   0.354E-02    0.511E-02
DAV:   8    -0.578831766607E+03    0.54675E-04   -0.71273E-05 17100   0.220E-02    0.350E-02
DAV:   9    -0.578831758560E+03    0.80471E-05   -0.24948E-05 16565   0.143E-02    0.263E-02
DAV:  10    -0.578831757093E+03    0.14673E-05   -0.76297E-06 14519   0.912E-03    0.172E-02
DAV:  11    -0.578831762102E+03   -0.50087E-05   -0.33159E-06 12838   0.609E-03    0.678E-03
DAV:  12    -0.578831776227E+03   -0.14126E-04   -0.11300E-06 11166   0.279E-03    0.399E-03
DAV:  13    -0.578831787992E+03   -0.11764E-04   -0.57827E-07 10703   0.175E-03    0.333E-03
DAV:  14    -0.578831800978E+03   -0.12986E-04   -0.35608E-07 10831   0.145E-03    0.339E-03
DAV:  15    -0.578831809615E+03   -0.86369E-05   -0.17136E-07 10447   0.104E-03    0.316E-03
DAV:  16    -0.578831827579E+03   -0.17965E-04   -0.16211E-07 10689   0.662E-04    0.283E-03
DAV:  17    -0.578831853032E+03   -0.25453E-04   -0.27969E-07 11352   0.959E-04    0.248E-03
DAV:  18    -0.578831886275E+03   -0.33243E-04   -0.45358E-07 11405   0.989E-04    0.186E-03
DAV:  19    -0.578831918658E+03   -0.32383E-04   -0.39487E-07 11392   0.723E-04    0.139E-03
DAV:  20    -0.578831956918E+03   -0.38260E-04   -0.38128E-07 11221   0.720E-04    0.142E-03
DAV:  21    -0.578831974501E+03   -0.17583E-04   -0.85608E-08 10839   0.566E-04    0.116E-03
DAV:  22    -0.578831993454E+03   -0.18953E-04   -0.57182E-08 10467   0.418E-04    0.963E-04
DAV:  23    -0.578832008207E+03   -0.14753E-04   -0.27641E-08 10519   0.318E-04    0.889E-04
DAV:  24    -0.578832018546E+03   -0.10339E-04   -0.13620E-08 10735   0.226E-04    0.859E-04
DAV:  25    -0.578832034157E+03   -0.15611E-04   -0.15244E-08 10553   0.188E-04    0.839E-04
DAV:  26    -0.578832042964E+03   -0.88073E-05   -0.83775E-09 10658   0.164E-04    0.807E-04
DAV:  27    -0.578832054067E+03   -0.11103E-04   -0.97624E-09 10355   0.129E-04    0.791E-04
DAV:  28    -0.578832059793E+03   -0.57260E-05   -0.58142E-09 10439   0.108E-04    0.784E-04
DAV:  29    -0.578832065728E+03   -0.59353E-05   -0.75785E-09 10649   0.969E-05    0.782E-04
DAV:  30    -0.578832068007E+03   -0.22785E-05   -0.40858E-09 10720   0.757E-05    0.784E-04
DAV:  31    -0.578832069597E+03   -0.15907E-05   -0.33261E-09 10112   0.658E-05    0.774E-04
DAV:  32    -0.578832070282E+03   -0.68475E-06   -0.20169E-09 10704   0.553E-05
  24 F= -.60976457E+03 E0= -.60972441E+03  d E =-.156797E-02  mag=    16.6162
       N       E                     dE             d eps       ncg     rms          rms(c)
DAV:   1    -0.578811333979E+03    0.20736E-01   -0.12542E+00 20342   0.257E+00    0.213E-01
DAV:   2    -0.578827428902E+03   -0.16095E-01   -0.15307E-01 17098   0.483E-01    0.429E-01
DAV:   3    -0.578829530672E+03   -0.21018E-02   -0.12620E-02 18322   0.260E-01    0.502E-01
DAV:   4    -0.578825859414E+03    0.36713E-02   -0.67681E-03 17672   0.180E-01    0.179E-01
DAV:   5    -0.578825548511E+03    0.31090E-03   -0.43205E-04 17365   0.475E-02    0.747E-02
DAV:   6    -0.578825501436E+03    0.47076E-04   -0.17238E-04 17470   0.378E-02    0.640E-02
DAV:   7    -0.578825418952E+03    0.82484E-04   -0.12103E-04 17298   0.279E-02    0.405E-02
DAV:   8    -0.578825378834E+03    0.40118E-04   -0.43917E-05 16908   0.173E-02    0.275E-02
DAV:   9    -0.578825370628E+03    0.82059E-05   -0.15601E-05 16281   0.113E-02    0.204E-02
DAV:  10    -0.578825369128E+03    0.15004E-05   -0.46833E-06 13476   0.724E-03    0.134E-02
DAV:  11    -0.578825371790E+03   -0.26627E-05   -0.20283E-06 11525   0.476E-03    0.533E-03
DAV:  12    -0.578825380377E+03   -0.85861E-05   -0.71280E-07 10793   0.219E-03    0.322E-03
DAV:  13    -0.578825387783E+03   -0.74063E-05   -0.37599E-07 10527   0.140E-03    0.272E-03
DAV:  14    -0.578825396464E+03   -0.86813E-05   -0.22872E-07 10815   0.116E-03    0.276E-03
DAV:  15    -0.578825402429E+03   -0.59647E-05   -0.11215E-07 10314   0.840E-04    0.259E-03
DAV:  16    -0.578825415285E+03   -0.12856E-04   -0.11455E-07 10975   0.540E-04    0.237E-03
DAV:  17    -0.578825432672E+03   -0.17387E-04   -0.18512E-07 11005   0.781E-04    0.205E-03
DAV:  18    -0.578825456075E+03   -0.23403E-04   -0.30451E-07 11245   0.814E-04    0.157E-03
DAV:  19    -0.578825478985E+03   -0.22910E-04   -0.26791E-07 11349   0.585E-04    0.120E-03
DAV:  20    -0.578825505422E+03   -0.26437E-04   -0.24021E-07 10965   0.589E-04    0.124E-03
DAV:  21    -0.578825517745E+03   -0.12323E-04   -0.58317E-08 10687   0.460E-04    0.105E-03
DAV:  22    -0.578825531133E+03   -0.13388E-04   -0.38371E-08 10408   0.342E-04    0.910E-04
DAV:  23    -0.578825541825E+03   -0.10691E-04   -0.20491E-08 10407   0.256E-04    0.847E-04
DAV:  24    -0.578825549329E+03   -0.75048E-05   -0.10022E-08 10091   0.188E-04    0.816E-04
DAV:  25    -0.578825560873E+03   -0.11544E-04   -0.11459E-08 10765   0.153E-04    0.807E-04
DAV:  26    -0.578825567889E+03   -0.70159E-05   -0.70347E-09 10171   0.141E-04    0.783E-04
DAV:  27    -0.578825576324E+03   -0.84348E-05   -0.77253E-09 10361   0.115E-04    0.774E-04
DAV:  28    -0.578825580404E+03   -0.40804E-05   -0.44096E-09 10639   0.918E-05    0.769E-04
DAV:  29    -0.578825584401E+03   -0.39972E-05   -0.50812E-09 10669   0.844E-05    0.772E-04
DAV:  30    -0.578825585877E+03   -0.14759E-05   -0.28603E-09 10030   0.714E-05    0.772E-04
DAV:  31    -0.578825587064E+03   -0.11865E-05   -0.26303E-09 10309   0.629E-05    0.762E-04
DAV:  32    -0.578825587481E+03   -0.41747E-06   -0.14654E-09 10081   0.551E-05
  25 F= -.60976504E+03 E0= -.60972479E+03  d E =-.203842E-02  mag=    16.5951
       N       E                     dE             d eps       ncg     rms          rms(c)
DAV:   1    -0.578822384556E+03    0.32025E-02   -0.10561E-01 20414   0.747E-01    0.619E-02
DAV:   2    -0.578823720973E+03   -0.13364E-02   -0.12868E-02 16970   0.140E-01    0.122E-01
DAV:   3    -0.578823908119E+03   -0.18715E-03   -0.90522E-04 17986   0.749E-02    0.147E-01
DAV:   4    -0.578823607237E+03    0.30088E-03   -0.47149E-04 17278   0.538E-02    0.536E-02
DAV:   5    -0.578823583230E+03    0.24007E-04   -0.33546E-05 16553   0.140E-02    0.221E-02
DAV:   6    -0.578823576801E+03    0.64292E-05   -0.14799E-05 15153   0.113E-02    0.188E-02
DAV:   7    -0.578823564255E+03    0.12547E-04   -0.10681E-05 15631   0.814E-03    0.121E-02
DAV:   8    -0.578823558680E+03    0.55747E-05   -0.37866E-06 14655   0.508E-03    0.856E-03
DAV:   9    -0.578823556189E+03    0.24911E-05   -0.12568E-06 10918   0.329E-03    0.571E-03
DAV:  10    -0.578823555380E+03    0.80909E-06   -0.40228E-07 10121   0.216E-03
  26 F= -.60976503E+03 E0= -.60972475E+03  d E =-.202431E-02  mag=    16.5930
       N       E                     dE             d eps       ncg     rms          rms(c)
DAV:   1    -0.578806992652E+03    0.16564E-01   -0.98899E-01 20806   0.253E+00    0.195E-01
DAV:   2    -0.578818951691E+03   -0.11959E-01   -0.12799E-01 16981   0.453E-01    0.178E-01
DAV:   3    -0.578820611234E+03   -0.16595E-02   -0.45355E-03 17305   0.163E-01    0.389E-01
DAV:   4    -0.578819027480E+03    0.15838E-02   -0.41876E-03 17263   0.147E-01    0.190E-01
DAV:   5    -0.578818615050E+03    0.41243E-03   -0.36294E-04 17581   0.536E-02    0.696E-02
DAV:   6    -0.578818599088E+03    0.15963E-04   -0.23288E-04 16896   0.314E-02    0.762E-02
DAV:   7    -0.578818533198E+03    0.65889E-04   -0.10649E-04 17183   0.276E-02    0.513E-02
DAV:   8    -0.578818483536E+03    0.49662E-04   -0.32122E-05 16382   0.172E-02    0.239E-02
DAV:   9    -0.578818479550E+03    0.39861E-05   -0.13931E-05 15739   0.100E-02    0.218E-02
DAV:  10    -0.578818475333E+03    0.42173E-05   -0.43792E-06 13296   0.624E-03    0.653E-03
DAV:  11    -0.578818480640E+03   -0.53078E-05   -0.11879E-06 11256   0.285E-03    0.410E-03
DAV:  12    -0.578818490688E+03   -0.10048E-04   -0.70883E-07 10745   0.210E-03    0.319E-03
DAV:  13    -0.578818499813E+03   -0.91251E-05   -0.40126E-07 10655   0.154E-03    0.297E-03
DAV:  14    -0.578818507296E+03   -0.74832E-05   -0.18858E-07 10395   0.108E-03    0.204E-03
DAV:  15    -0.578818518810E+03   -0.11514E-04   -0.90228E-08 10644   0.552E-04    0.196E-03
DAV:  16    -0.578818532977E+03   -0.14167E-04   -0.88693E-08 10529   0.500E-04    0.187E-03
DAV:  17    -0.578818550307E+03   -0.17331E-04   -0.10402E-07 11031   0.520E-04    0.151E-03
DAV:  18    -0.578818581479E+03   -0.31171E-04   -0.25553E-07 11162   0.596E-04    0.132E-03
DAV:  19    -0.578818608697E+03   -0.27218E-04   -0.21287E-07 10921   0.611E-04    0.134E-03
DAV:  20    -0.578818631347E+03   -0.22650E-04   -0.16929E-07 11033   0.513E-04    0.117E-03
DAV:  21    -0.578818647159E+03   -0.15812E-04   -0.87704E-08 10719   0.455E-04    0.103E-03
DAV:  22    -0.578818659994E+03   -0.12835E-04   -0.58013E-08 10694   0.379E-04    0.854E-04
DAV:  23    -0.578818668144E+03   -0.81495E-05   -0.20875E-08 10842   0.229E-04    0.813E-04
DAV:  24    -0.578818673234E+03   -0.50901E-05   -0.94975E-09 10389   0.164E-04    0.793E-04
DAV:  25    -0.578818680608E+03   -0.73744E-05   -0.78424E-09 10192   0.136E-04    0.776E-04
DAV:  26    -0.578818685350E+03   -0.47423E-05   -0.46132E-09 10399   0.117E-04    0.767E-04
DAV:  27    -0.578818688889E+03   -0.35386E-05   -0.32573E-09 10289   0.875E-05    0.759E-04
DAV:  28    -0.578818690341E+03   -0.14519E-05   -0.15408E-09 10490   0.669E-05    0.759E-04
DAV:  29    -0.578818691904E+03   -0.15632E-05   -0.18530E-09 10536   0.609E-05    0.755E-04
DAV:  30    -0.578818692923E+03   -0.10189E-05   -0.19676E-09 10043   0.643E-05    0.753E-04
DAV:  31    -0.578818693349E+03   -0.42631E-06   -0.11327E-09 10151   0.549E-05
  27 F= -.60976607E+03 E0= -.60972570E+03  d E =-.104467E-02  mag=    16.5769
