       N       E                     dE             d eps       ncg     rms          rms(c)
DAV:   1     0.162167560365E+05    0.16217E+05   -0.10301E+06 24108   0.154E+03
DAV:   2     0.128365454438E+03   -0.16088E+05   -0.15621E+05 22778   0.444E+02
DAV:   3    -0.585137432193E+03   -0.71350E+03   -0.68122E+03 22688   0.945E+01
DAV:   4    -0.602220974232E+03   -0.17084E+02   -0.17001E+02 22096   0.144E+01
DAV:   5    -0.602576075448E+03   -0.35510E+00   -0.35488E+00 23672   0.222E+00    0.667E+01
DAV:   6    -0.552694632122E+03    0.49881E+02   -0.29193E+02 21355   0.267E+01    0.438E+01
DAV:   7    -0.937625167039E+03   -0.38493E+03   -0.12418E+02 26517   0.690E+01    0.132E+02
DAV:   8    -0.569324621171E+03    0.36830E+03   -0.10378E+02 25680   0.283E+01    0.598E+01
DAV:   9    -0.528609971055E+03    0.40715E+02   -0.64773E+01 22600   0.171E+01    0.331E+01
DAV:  10    -0.520104417665E+03    0.85056E+01   -0.23388E+01 22176   0.140E+01    0.297E+01
DAV:  11    -0.514394059990E+03    0.57104E+01   -0.83590E+00 21976   0.703E+00    0.252E+01
DAV:  12    -0.514030324305E+03    0.36374E+00   -0.43622E+00 21904   0.606E+00    0.226E+01
DAV:  13    -0.514488511877E+03   -0.45819E+00   -0.76961E+00 21832   0.619E+00    0.133E+01
DAV:  14    -0.522255108362E+03   -0.77666E+01   -0.52089E+00 21837   0.533E+00    0.160E+01
DAV:  15    -0.520022415816E+03    0.22327E+01   -0.86307E-01 21650   0.217E+00    0.151E+01
DAV:  16    -0.522378899104E+03   -0.23565E+01   -0.74109E-01 21808   0.285E+00    0.154E+01
DAV:  17    -0.527380827645E+03   -0.50019E+01   -0.23732E+00 21605   0.464E+00    0.160E+01
DAV:  18    -0.531546542034E+03   -0.41657E+01   -0.18317E+00 21632   0.401E+00    0.154E+01
DAV:  19    -0.532784681541E+03   -0.12381E+01   -0.10717E+00 21784   0.323E+00    0.118E+01
DAV:  20    -0.536716235892E+03   -0.39316E+01   -0.26299E+00 21509   0.404E+00    0.128E+01
DAV:  21    -0.540766783845E+03   -0.40505E+01   -0.18749E+00 21676   0.392E+00    0.125E+01
DAV:  22    -0.542695712218E+03   -0.19289E+01   -0.21486E+00 21367   0.375E+00    0.620E+00
DAV:  23    -0.548782257739E+03   -0.60865E+01   -0.21037E+00 21312   0.304E+00    0.585E+00
DAV:  24    -0.551431404561E+03   -0.26491E+01   -0.10462E+00 21517   0.242E+00    0.498E+00
DAV:  25    -0.555002851741E+03   -0.35714E+01   -0.10745E+00 21290   0.212E+00    0.414E+00
DAV:  26    -0.557839479830E+03   -0.28366E+01   -0.77374E-01 21153   0.187E+00    0.499E+00
DAV:  27    -0.557856051219E+03   -0.16571E-01   -0.41770E-01 21386   0.149E+00    0.323E+00
DAV:  28    -0.559291441600E+03   -0.14354E+01   -0.26505E-01 21250   0.118E+00    0.232E+00
DAV:  29    -0.560536141348E+03   -0.12447E+01   -0.27985E-01 21248   0.104E+00    0.194E+00
DAV:  30    -0.561355988768E+03   -0.81985E+00   -0.11527E-01 21248   0.852E-01    0.161E+00
DAV:  31    -0.562110971314E+03   -0.75498E+00   -0.77387E-02 21169   0.748E-01    0.157E+00
DAV:  32    -0.562521154742E+03   -0.41018E+00   -0.76444E-02 21389   0.775E-01    0.148E+00
DAV:  33    -0.562769482085E+03   -0.24833E+00   -0.49903E-02 21338   0.664E-01    0.110E+00
DAV:  34    -0.562999213452E+03   -0.22973E+00   -0.30188E-02 21208   0.491E-01    0.928E-01
DAV:  35    -0.563220786271E+03   -0.22157E+00   -0.24524E-02 21280   0.440E-01    0.913E-01
DAV:  36    -0.563423741807E+03   -0.20296E+00   -0.16870E-02 21274   0.382E-01    0.687E-01
DAV:  37    -0.563606394094E+03   -0.18265E+00   -0.11212E-02 21304   0.352E-01    0.597E-01
DAV:  38    -0.563855296718E+03   -0.24890E+00   -0.76784E-03 21456   0.291E-01    0.451E-01
DAV:  39    -0.564073696496E+03   -0.21840E+00   -0.38533E-03 21421   0.226E-01    0.341E-01
DAV:  40    -0.564309938962E+03   -0.23624E+00   -0.20881E-03 21240   0.161E-01    0.229E-01
DAV:  41    -0.564508674883E+03   -0.19874E+00   -0.11651E-03 21328   0.128E-01    0.214E-01
DAV:  42    -0.564635596793E+03   -0.12692E+00   -0.82915E-04 21440   0.110E-01    0.183E-01
DAV:  43    -0.564709832820E+03   -0.74236E-01   -0.60016E-04 21544   0.873E-02    0.135E-01
DAV:  44    -0.564735703355E+03   -0.25871E-01   -0.31725E-04 21704   0.660E-02    0.110E-01
DAV:  45    -0.564746391497E+03   -0.10688E-01   -0.15112E-04 21656   0.446E-02    0.968E-02
DAV:  46    -0.564750542522E+03   -0.41510E-02   -0.10471E-04 21704   0.373E-02    0.586E-02
DAV:  47    -0.564753996752E+03   -0.34542E-02   -0.81793E-05 21544   0.305E-02    0.497E-02
DAV:  48    -0.564755004486E+03   -0.10077E-02   -0.30936E-05 21392   0.216E-02    0.294E-02
DAV:  49    -0.564755839035E+03   -0.83455E-03   -0.26357E-05 20136   0.168E-02    0.392E-02
DAV:  50    -0.564756510849E+03   -0.67181E-03   -0.14880E-05 20040   0.117E-02    0.282E-02
DAV:  51    -0.564756654304E+03   -0.14346E-03   -0.30306E-05 17941   0.154E-02    0.266E-02
DAV:  52    -0.564757388202E+03   -0.73390E-03   -0.10668E-05 18373   0.773E-03    0.214E-02
DAV:  53    -0.564757525289E+03   -0.13709E-03   -0.50852E-06 15912   0.769E-03    0.127E-02
DAV:  54    -0.564757935717E+03   -0.41043E-03   -0.21653E-04 21165   0.365E-02    0.135E-01
DAV:  55    -0.564758301117E+03   -0.36540E-03   -0.69382E-05 18480   0.178E-02    0.202E-01
DAV:  56    -0.564758767121E+03   -0.46600E-03   -0.63334E-05 18456   0.195E-02    0.278E-01
DAV:  57    -0.564758892464E+03   -0.12534E-03   -0.20744E-05 19608   0.601E-03    0.296E-01
DAV:  58    -0.564758990045E+03   -0.97581E-04   -0.15577E-06 13352   0.312E-03    0.308E-01
DAV:  59    -0.564759032978E+03   -0.42933E-04   -0.96801E-07 13384   0.208E-03    0.308E-01
DAV:  60    -0.564758999774E+03    0.33204E-04   -0.50976E-07 13640   0.179E-03    0.302E-01
DAV:  61    -0.564758821533E+03    0.17824E-03   -0.30045E-06 13256   0.464E-03    0.286E-01
DAV:  62    -0.564758850243E+03   -0.28710E-04   -0.48937E-07 12784   0.186E-03    0.287E-01
DAV:  63    -0.564758833146E+03    0.17097E-04   -0.14032E-07 12872   0.117E-03    0.285E-01
DAV:  64    -0.564758827587E+03    0.55598E-05   -0.36200E-08 12568   0.281E-04    0.285E-01
DAV:  65    -0.564758789757E+03    0.37830E-04   -0.27560E-07 12408   0.140E-03    0.279E-01
DAV:  66    -0.564758724705E+03    0.65052E-04   -0.20564E-06 12848   0.415E-03    0.265E-01
DAV:  67    -0.564758327415E+03    0.39729E-03   -0.78104E-05 20016   0.228E-02    0.176E-01
DAV:  68    -0.564758131216E+03    0.19620E-03   -0.11868E-04 19296   0.270E-02    0.740E-02
DAV:  69    -0.564758178034E+03   -0.46818E-04   -0.73684E-05 18416   0.192E-02    0.111E-02
DAV:  70    -0.564758271808E+03   -0.93773E-04   -0.25109E-05 18680   0.101E-02    0.347E-02
DAV:  71    -0.564758367854E+03   -0.96047E-04   -0.32053E-06 15328   0.391E-03    0.404E-02
DAV:  72    -0.564758519577E+03   -0.15172E-03   -0.12137E-05 14805   0.862E-03    0.701E-02
DAV:  73    -0.564758590311E+03   -0.70734E-04   -0.25977E-06 15456   0.357E-03    0.629E-02
DAV:  74    -0.564758623097E+03   -0.32786E-04   -0.80571E-07 13104   0.257E-03    0.565E-02
DAV:  75    -0.564758661231E+03   -0.38134E-04   -0.12157E-06 13016   0.300E-03    0.468E-02
DAV:  76    -0.564758704609E+03   -0.43378E-04   -0.68667E-07 13112   0.197E-03    0.422E-02
DAV:  77    -0.564758775660E+03   -0.71051E-04   -0.80084E-07 13152   0.242E-03    0.491E-02
DAV:  78    -0.564758807406E+03   -0.31746E-04   -0.27760E-07 13216   0.113E-03    0.487E-02
DAV:  79    -0.564758824677E+03   -0.17270E-04   -0.20703E-07 13136   0.114E-03    0.459E-02
DAV:  80    -0.564758841709E+03   -0.17032E-04   -0.29732E-07 12842   0.141E-03    0.412E-02
DAV:  81    -0.564758871906E+03   -0.30197E-04   -0.20710E-07 13016   0.824E-04    0.396E-02
DAV:  82    -0.564758897524E+03   -0.25618E-04   -0.20309E-07 13017   0.881E-04    0.373E-02
DAV:  83    -0.564758906653E+03   -0.91291E-05   -0.43639E-07 12984   0.161E-03    0.315E-02
DAV:  84    -0.564758913225E+03   -0.65726E-05   -0.39044E-07 12622   0.134E-03    0.266E-02
DAV:  85    -0.564758923057E+03   -0.98310E-05   -0.15006E-07 13120   0.667E-04    0.249E-02
DAV:  86    -0.564758926639E+03   -0.35826E-05   -0.22666E-07 12976   0.120E-03    0.205E-02
DAV:  87    -0.564758930139E+03   -0.34997E-05   -0.23126E-07 12762   0.106E-03    0.167E-02
DAV:  88    -0.564758932157E+03   -0.20179E-05   -0.23667E-07 12776   0.114E-03    0.125E-02
DAV:  89    -0.564758935310E+03   -0.31535E-05   -0.15902E-07 13040   0.764E-04    0.979E-03
DAV:  90    -0.564758937809E+03   -0.24990E-05   -0.33282E-08 12944   0.353E-04    0.887E-03
DAV:  91    -0.564758937334E+03    0.47474E-06   -0.64357E-08 12562   0.630E-04
   1 F= -.61380649E+03 E0= -.61369973E+03  d E =-.613806E+03  mag=    24.5233
       N       E                     dE             d eps       ncg     rms          rms(c)
DAV:   1    -0.560244564970E+03    0.45144E+01   -0.39279E+02 25132   0.455E+01    0.439E+00
DAV:   2    -0.568752137219E+03   -0.85076E+01   -0.62260E+01 21624   0.105E+01    0.132E+01
DAV:   3    -0.567292982090E+03    0.14592E+01   -0.56300E+00 21708   0.731E+00    0.126E+01
DAV:   4    -0.565787991846E+03    0.15050E+01   -0.12878E+00 22581   0.355E+00    0.398E+00
DAV:   5    -0.565653375282E+03    0.13462E+00   -0.61288E-01 21741   0.167E+00    0.258E+00
DAV:   6    -0.565620600124E+03    0.32775E-01   -0.17274E-01 21357   0.113E+00    0.197E+00
DAV:   7    -0.565593007047E+03    0.27593E-01   -0.96333E-02 21456   0.894E-01    0.121E+00
DAV:   8    -0.565595821084E+03   -0.28140E-02   -0.66086E-02 21301   0.650E-01    0.125E+00
DAV:   9    -0.565581690334E+03    0.14131E-01   -0.32806E-02 21328   0.550E-01    0.505E-01
DAV:  10    -0.565581987879E+03   -0.29754E-03   -0.63124E-03 21440   0.262E-01    0.410E-01
DAV:  11    -0.565582157879E+03   -0.17000E-03   -0.17975E-03 21752   0.157E-01    0.377E-01
DAV:  12    -0.565582141951E+03    0.15928E-04   -0.14599E-03 21608   0.146E-01    0.331E-01
DAV:  13    -0.565581590867E+03    0.55108E-03   -0.11183E-03 21616   0.122E-01    0.110E-01
DAV:  14    -0.565581706482E+03   -0.11562E-03   -0.42260E-04 21504   0.598E-02    0.765E-02
DAV:  15    -0.565581844806E+03   -0.13832E-03   -0.14798E-04 21568   0.445E-02    0.950E-02
DAV:  16    -0.565581889295E+03   -0.44488E-04   -0.74297E-05 21672   0.331E-02    0.726E-02
DAV:  17    -0.565581979846E+03   -0.90552E-04   -0.37592E-05 21512   0.213E-02    0.416E-02
DAV:  18    -0.565582129916E+03   -0.15007E-03   -0.31895E-05 21616   0.189E-02    0.373E-02
DAV:  19    -0.565582227185E+03   -0.97269E-04   -0.15916E-05 19952   0.146E-02    0.356E-02
DAV:  20    -0.565582304098E+03   -0.76914E-04   -0.78819E-06 18712   0.114E-02    0.316E-02
DAV:  21    -0.565582391984E+03   -0.87886E-04   -0.10343E-05 18480   0.134E-02    0.318E-02
DAV:  22    -0.565582413072E+03   -0.21088E-04   -0.12983E-05 19008   0.130E-02    0.231E-02
DAV:  23    -0.565582234911E+03    0.17816E-03   -0.11792E-05 18704   0.106E-02    0.229E-02
DAV:  24    -0.565582089067E+03    0.14584E-03   -0.94634E-06 18456   0.105E-02    0.192E-02
DAV:  25    -0.565582057040E+03    0.32027E-04   -0.89686E-06 17935   0.107E-02    0.169E-02
DAV:  26    -0.565582132396E+03   -0.75356E-04   -0.60003E-06 18392   0.607E-03    0.106E-02
DAV:  27    -0.565582284629E+03   -0.15223E-03   -0.30451E-06 16264   0.582E-03    0.106E-02
DAV:  28    -0.565582484650E+03   -0.20002E-03   -0.24639E-06 14816   0.528E-03    0.915E-03
DAV:  29    -0.565582630207E+03   -0.14556E-03   -0.11212E-06 13832   0.363E-03    0.524E-03
DAV:  30    -0.565582883737E+03   -0.25353E-03   -0.11989E-06 14584   0.287E-03    0.606E-03
DAV:  31    -0.565583361368E+03   -0.47763E-03   -0.29666E-06 15872   0.300E-03    0.610E-03
DAV:  32    -0.565583649474E+03   -0.28811E-03   -0.11713E-06 14760   0.212E-03    0.415E-03
DAV:  33    -0.565583847119E+03   -0.19764E-03   -0.61196E-07 13480   0.209E-03    0.346E-03
DAV:  34    -0.565584125045E+03   -0.27793E-03   -0.83333E-07 14168   0.179E-03    0.333E-03
DAV:  35    -0.565584263468E+03   -0.13842E-03   -0.35109E-07 13328   0.158E-03    0.196E-03
DAV:  36    -0.565584343265E+03   -0.79797E-04   -0.21963E-07 13040   0.115E-03    0.242E-03
DAV:  37    -0.565584436212E+03   -0.92947E-04   -0.23310E-07 13456   0.909E-04    0.144E-03
DAV:  38    -0.565584519658E+03   -0.83445E-04   -0.32194E-07 13640   0.867E-04    0.152E-03
DAV:  39    -0.565584584744E+03   -0.65086E-04   -0.50161E-07 13223   0.157E-03    0.601E-03
DAV:  40    -0.565584622028E+03   -0.37285E-04   -0.31948E-07 13576   0.110E-03    0.285E-03
DAV:  41    -0.565584647760E+03   -0.25732E-04   -0.36442E-07 13528   0.132E-03    0.219E-03
DAV:  42    -0.565584667098E+03   -0.19338E-04   -0.19578E-07 13213   0.653E-04    0.403E-03
DAV:  43    -0.565584672923E+03   -0.58250E-05   -0.36713E-08 13088   0.323E-04    0.349E-03
DAV:  44    -0.565584675951E+03   -0.30287E-05   -0.27214E-08 12792   0.348E-04    0.240E-03
DAV:  45    -0.565584678305E+03   -0.23542E-05   -0.23650E-08 12792   0.333E-04    0.137E-03
DAV:  46    -0.565584680338E+03   -0.20328E-05   -0.15469E-08 12760   0.252E-04    0.775E-04
DAV:  47    -0.565584681171E+03   -0.83330E-06   -0.36258E-09 13064   0.115E-04
   2 F= -.61465290E+03 E0= -.61454268E+03  d E =-.846407E+00  mag=    24.0720
       N       E                     dE             d eps       ncg     rms          rms(c)
DAV:   1    -0.563971435145E+03    0.16132E+01   -0.13969E+02 25132   0.271E+01    0.259E+00
DAV:   2    -0.566918553258E+03   -0.29471E+01   -0.20848E+01 21568   0.619E+00    0.848E+00
DAV:   3    -0.566280619686E+03    0.63793E+00   -0.21473E+00 21609   0.428E+00    0.740E+00
DAV:   4    -0.565791465361E+03    0.48915E+00   -0.38697E-01 22322   0.217E+00    0.247E+00
DAV:   5    -0.565732918527E+03    0.58547E-01   -0.14687E-01 21516   0.995E-01    0.138E+00
DAV:   6    -0.565727275264E+03    0.56433E-02   -0.58549E-02 21360   0.682E-01    0.118E+00
DAV:   7    -0.565716176543E+03    0.11099E-01   -0.37345E-02 21397   0.545E-01    0.691E-01
DAV:   8    -0.565714617585E+03    0.15590E-02   -0.19338E-02 21209   0.357E-01    0.559E-01
DAV:   9    -0.565711581788E+03    0.30358E-02   -0.83416E-03 21368   0.277E-01    0.220E-01
DAV:  10    -0.565711379154E+03    0.20263E-03   -0.17665E-03 21552   0.127E-01    0.202E-01
DAV:  11    -0.565711316543E+03    0.62610E-04   -0.50626E-04 21888   0.851E-02    0.200E-01
DAV:  12    -0.565711154046E+03    0.16250E-03   -0.37113E-04 21608   0.752E-02    0.155E-01
DAV:  13    -0.565710935578E+03    0.21847E-03   -0.26969E-04 21560   0.569E-02    0.613E-02
DAV:  14    -0.565710912473E+03    0.23104E-04   -0.97509E-05 21664   0.292E-02    0.532E-02
DAV:  15    -0.565710916580E+03   -0.41067E-05   -0.45536E-05 21472   0.241E-02    0.569E-02
DAV:  16    -0.565710912750E+03    0.38301E-05   -0.24182E-05 20984   0.189E-02    0.472E-02
DAV:  17    -0.565710910111E+03    0.26384E-05   -0.16216E-05 21048   0.145E-02    0.359E-02
DAV:  18    -0.565710920980E+03   -0.10868E-04   -0.24199E-05 20096   0.182E-02    0.494E-02
DAV:  19    -0.565710863257E+03    0.57723E-04   -0.19576E-05 19472   0.168E-02    0.517E-02
DAV:  20    -0.565710806698E+03    0.56559E-04   -0.13499E-05 19008   0.150E-02    0.461E-02
DAV:  21    -0.565710628617E+03    0.17808E-03   -0.22796E-05 19208   0.186E-02    0.354E-02
DAV:  22    -0.565709953802E+03    0.67481E-03   -0.31205E-05 19848   0.179E-02    0.285E-02
DAV:  23    -0.565709574898E+03    0.37890E-03   -0.11441E-05 18786   0.106E-02    0.160E-02
DAV:  24    -0.565709506925E+03    0.67973E-04   -0.67235E-06 18624   0.854E-03    0.141E-02
DAV:  25    -0.565709562386E+03   -0.55461E-04   -0.46588E-06 17048   0.768E-03    0.110E-02
DAV:  26    -0.565709742587E+03   -0.18020E-03   -0.39070E-06 15672   0.601E-03    0.111E-02
DAV:  27    -0.565709896420E+03   -0.15383E-03   -0.22184E-06 14560   0.518E-03    0.833E-03
DAV:  28    -0.565710157597E+03   -0.26118E-03   -0.21534E-06 15032   0.400E-03    0.699E-03
DAV:  29    -0.565710541729E+03   -0.38413E-03   -0.25256E-06 15525   0.307E-03    0.766E-03
DAV:  30    -0.565711088300E+03   -0.54657E-03   -0.36706E-06 15776   0.329E-03    0.696E-03
DAV:  31    -0.565711540460E+03   -0.45216E-03   -0.26026E-06 15512   0.303E-03    0.388E-03
DAV:  32    -0.565712030443E+03   -0.48998E-03   -0.22195E-06 15248   0.248E-03    0.427E-03
DAV:  33    -0.565712488037E+03   -0.45759E-03   -0.18552E-06 14976   0.231E-03    0.277E-03
DAV:  34    -0.565712721592E+03   -0.23356E-03   -0.47757E-07 13776   0.157E-03    0.205E-03
DAV:  35    -0.565712946818E+03   -0.22523E-03   -0.41631E-07 13992   0.123E-03    0.197E-03
DAV:  36    -0.565713076843E+03   -0.13003E-03   -0.20223E-07 13536   0.112E-03    0.228E-03
DAV:  37    -0.565713173863E+03   -0.97019E-04   -0.16880E-07 13376   0.823E-04    0.233E-03
DAV:  38    -0.565713228450E+03   -0.54587E-04   -0.98293E-08 13216   0.655E-04    0.164E-03
DAV:  39    -0.565713269991E+03   -0.41541E-04   -0.90002E-08 13136   0.530E-04    0.101E-03
DAV:  40    -0.565713289827E+03   -0.19836E-04   -0.47799E-08 13040   0.396E-04    0.867E-04
DAV:  41    -0.565713300131E+03   -0.10304E-04   -0.27149E-08 12698   0.320E-04    0.722E-04
DAV:  42    -0.565713305073E+03   -0.49428E-05   -0.18069E-08 12564   0.205E-04    0.642E-04
DAV:  43    -0.565713306258E+03   -0.11842E-05   -0.55424E-09 12720   0.146E-04    0.631E-04
DAV:  44    -0.565713307711E+03   -0.14536E-05   -0.77627E-09 12696   0.169E-04    0.837E-04
DAV:  45    -0.565713308246E+03   -0.53528E-06   -0.24977E-09 12928   0.847E-05
   3 F= -.61479225E+03 E0= -.61467986E+03  d E =-.985758E+00  mag=    23.6500
       N       E                     dE             d eps       ncg     rms          rms(c)
DAV:   1    -0.560747076476E+03    0.49662E+01   -0.41784E+02 24668   0.471E+01    0.430E+00
DAV:   2    -0.569048879593E+03   -0.83018E+01   -0.61360E+01 21605   0.106E+01    0.134E+01
DAV:   3    -0.567626668740E+03    0.14222E+01   -0.53002E+00 21729   0.717E+00    0.119E+01
DAV:   4    -0.566286334779E+03    0.13403E+01   -0.10704E+00 22048   0.344E+00    0.401E+00
DAV:   5    -0.566145332006E+03    0.14100E+00   -0.48228E-01 21805   0.170E+00    0.252E+00
DAV:   6    -0.566100989938E+03    0.44342E-01   -0.14288E-01 21594   0.104E+00    0.159E+00
DAV:   7    -0.566089623833E+03    0.11366E-01   -0.81402E-02 21496   0.811E-01    0.124E+00
DAV:   8    -0.566092679068E+03   -0.30552E-02   -0.71859E-02 21407   0.761E-01    0.137E+00
DAV:   9    -0.566074923785E+03    0.17755E-01   -0.37486E-02 21261   0.523E-01    0.508E-01
DAV:  10    -0.566074256418E+03    0.66737E-03   -0.75195E-03 21496   0.292E-01    0.286E-01
DAV:  11    -0.566075652667E+03   -0.13962E-02   -0.22145E-03 21720   0.166E-01    0.371E-01
DAV:  12    -0.566075402118E+03    0.25055E-03   -0.11118E-03 21880   0.130E-01    0.315E-01
DAV:  13    -0.566074897885E+03    0.50423E-03   -0.74718E-04 21544   0.104E-01    0.146E-01
DAV:  14    -0.566074915944E+03   -0.18059E-04   -0.40895E-04 21544   0.598E-02    0.831E-02
DAV:  15    -0.566074999234E+03   -0.83291E-04   -0.15022E-04 21592   0.419E-02    0.986E-02
DAV:  16    -0.566074998765E+03    0.46892E-06   -0.74552E-05 21776   0.343E-02    0.843E-02
DAV:  17    -0.566075016554E+03   -0.17789E-04   -0.46427E-05 21520   0.260E-02    0.674E-02
DAV:  18    -0.566075095213E+03   -0.78660E-04   -0.80171E-05 21488   0.292E-02    0.831E-02
DAV:  19    -0.566075120765E+03   -0.25552E-04   -0.42370E-05 21632   0.255E-02    0.892E-02
DAV:  20    -0.566075135355E+03   -0.14590E-04   -0.32260E-05 21408   0.234E-02    0.843E-02
DAV:  21    -0.566075054943E+03    0.80412E-04   -0.38524E-05 21608   0.267E-02    0.694E-02
DAV:  22    -0.566074615393E+03    0.43955E-03   -0.51344E-05 21432   0.290E-02    0.516E-02
DAV:  23    -0.566073190017E+03    0.14254E-02   -0.44001E-05 21440   0.228E-02    0.304E-02
DAV:  24    -0.566072799057E+03    0.39096E-03   -0.24719E-05 20696   0.177E-02    0.315E-02
DAV:  25    -0.566072743721E+03    0.55336E-04   -0.14821E-05 18848   0.149E-02    0.230E-02
DAV:  26    -0.566072963565E+03   -0.21984E-03   -0.97185E-06 18448   0.115E-02    0.206E-02
DAV:  27    -0.566073385295E+03   -0.42173E-03   -0.84131E-06 17232   0.993E-03    0.177E-02
DAV:  28    -0.566073805351E+03   -0.42006E-03   -0.53302E-06 16768   0.789E-03    0.116E-02
DAV:  29    -0.566074631455E+03   -0.82610E-03   -0.56345E-06 16349   0.439E-03    0.978E-03
DAV:  30    -0.566075355975E+03   -0.72452E-03   -0.38433E-06 16104   0.473E-03    0.969E-03
DAV:  31    -0.566076429408E+03   -0.10734E-02   -0.62984E-06 16816   0.506E-03    0.797E-03
DAV:  32    -0.566077472220E+03   -0.10428E-02   -0.59687E-06 16952   0.465E-03    0.685E-03
DAV:  33    -0.566078518302E+03   -0.10461E-02   -0.56252E-06 16976   0.371E-03    0.603E-03
DAV:  34    -0.566079071362E+03   -0.55306E-03   -0.17406E-06 15400   0.299E-03    0.521E-03
DAV:  35    -0.566079625272E+03   -0.55391E-03   -0.12054E-06 14336   0.270E-03    0.385E-03
DAV:  36    -0.566080017116E+03   -0.39184E-03   -0.71234E-07 14080   0.222E-03    0.258E-03
DAV:  37    -0.566080233427E+03   -0.21631E-03   -0.35968E-07 13624   0.155E-03    0.220E-03
DAV:  38    -0.566080360091E+03   -0.12666E-03   -0.23319E-07 13528   0.110E-03    0.185E-03
DAV:  39    -0.566080446819E+03   -0.86728E-04   -0.18679E-07 13408   0.839E-04    0.143E-03
DAV:  40    -0.566080513100E+03   -0.66281E-04   -0.16845E-07 13328   0.744E-04    0.134E-03
DAV:  41    -0.566080553646E+03   -0.40546E-04   -0.12556E-07 13144   0.628E-04    0.930E-04
DAV:  42    -0.566080571704E+03   -0.18059E-04   -0.56075E-08 13144   0.380E-04    0.751E-04
DAV:  43    -0.566080579294E+03   -0.75893E-05   -0.27345E-08 12896   0.253E-04    0.609E-04
DAV:  44    -0.566080583634E+03   -0.43404E-05   -0.17173E-08 12792   0.193E-04    0.610E-04
DAV:  45    -0.566080585225E+03   -0.15912E-05   -0.89301E-09 12912   0.150E-04    0.573E-04
DAV:  46    -0.566080585538E+03   -0.31316E-06   -0.29927E-09 12696   0.867E-05
   4 F= -.61512228E+03 E0= -.61500756E+03  d E =-.330028E+00  mag=    22.8573
       N       E                     dE             d eps       ncg     rms          rms(c)
DAV:   1    -0.566036227966E+03    0.44357E-01   -0.34794E+00 24668   0.433E+00    0.366E-01
DAV:   2    -0.566085125811E+03   -0.48898E-01   -0.43554E-01 21325   0.873E-01    0.877E-01
DAV:   3    -0.566092256846E+03   -0.71310E-02   -0.59593E-02 21359   0.542E-01    0.126E+00
DAV:   4    -0.566077372437E+03    0.14884E-01   -0.20320E-02 21631   0.369E-01    0.488E-01
DAV:   5    -0.566075077270E+03    0.22952E-02   -0.24824E-03 21212   0.163E-01    0.164E-01
DAV:   6    -0.566075056218E+03    0.21052E-04   -0.11524E-03 21952   0.881E-02    0.147E-01
DAV:   7    -0.566074921086E+03    0.13513E-03   -0.67845E-04 21552   0.757E-02    0.100E-01
DAV:   8    -0.566074840198E+03    0.80888E-04   -0.35527E-04 21336   0.604E-02    0.708E-02
DAV:   9    -0.566074771677E+03    0.68521E-04   -0.14426E-04 21392   0.341E-02    0.310E-02
DAV:  10    -0.566074758575E+03    0.13101E-04   -0.31061E-05 20965   0.198E-02    0.238E-02
DAV:  11    -0.566074753755E+03    0.48203E-05   -0.10514E-05 20261   0.111E-02    0.229E-02
DAV:  12    -0.566074753288E+03    0.46659E-06   -0.57774E-06 17928   0.872E-03
   5 F= -.61512760E+03 E0= -.61501308E+03  d E =-.335353E+00  mag=    22.8752
       N       E                     dE             d eps       ncg     rms          rms(c)
DAV:   1    -0.564933350032E+03    0.11414E+01   -0.12461E+02 25295   0.263E+01    0.225E+00
DAV:   2    -0.566354687609E+03   -0.14213E+01   -0.14341E+01 21325   0.505E+00    0.308E+00
DAV:   3    -0.567244680063E+03   -0.88999E+00   -0.16443E+00 22386   0.324E+00    0.959E+00
DAV:   4    -0.566277718051E+03    0.96696E+00   -0.84120E-01 22524   0.257E+00    0.173E+00
DAV:   5    -0.566260925638E+03    0.16792E-01   -0.10401E-01 21530   0.955E-01    0.130E+00
DAV:   6    -0.566253438782E+03    0.74869E-02   -0.39822E-02 21284   0.581E-01    0.104E+00
DAV:   7    -0.566249056207E+03    0.43826E-02   -0.25200E-02 21333   0.527E-01    0.738E-01
DAV:   8    -0.566249123085E+03   -0.66878E-04   -0.12134E-02 21504   0.433E-01    0.786E-01
DAV:   9    -0.566245358132E+03    0.37650E-02   -0.72848E-03 21656   0.343E-01    0.403E-01
DAV:  10    -0.566244407167E+03    0.95096E-03   -0.26013E-03 21314   0.189E-01    0.186E-01
DAV:  11    -0.566244152682E+03    0.25448E-03   -0.81242E-04 21448   0.106E-01    0.115E-01
DAV:  12    -0.566244149705E+03    0.29772E-05   -0.33836E-04 21624   0.721E-02    0.126E-01
DAV:  13    -0.566244047170E+03    0.10254E-03   -0.16932E-04 21400   0.502E-02    0.678E-02
DAV:  14    -0.566243984287E+03    0.62883E-04   -0.65093E-05 21784   0.285E-02    0.364E-02
DAV:  15    -0.566243957131E+03    0.27155E-04   -0.31836E-05 21256   0.220E-02    0.305E-02
DAV:  16    -0.566243933560E+03    0.23571E-04   -0.17243E-05 21008   0.165E-02    0.231E-02
DAV:  17    -0.566243918798E+03    0.14762E-04   -0.98059E-06 19272   0.120E-02    0.172E-02
DAV:  18    -0.566243913778E+03    0.50196E-05   -0.42215E-06 15408   0.804E-03    0.103E-02
DAV:  19    -0.566243921884E+03   -0.81060E-05   -0.13624E-06 13056   0.395E-03    0.730E-03
DAV:  20    -0.566243948321E+03   -0.26437E-04   -0.88030E-07 13184   0.329E-03    0.736E-03
DAV:  21    -0.566243986589E+03   -0.38268E-04   -0.68279E-07 13136   0.314E-03    0.721E-03
DAV:  22    -0.566244037684E+03   -0.51095E-04   -0.59867E-07 13232   0.265E-03    0.752E-03
DAV:  23    -0.566244117264E+03   -0.79580E-04   -0.72819E-07 13480   0.272E-03    0.697E-03
DAV:  24    -0.566244200732E+03   -0.83468E-04   -0.75804E-07 13568   0.256E-03    0.394E-03
DAV:  25    -0.566244380068E+03   -0.17934E-03   -0.19518E-06 15760   0.230E-03    0.437E-03
DAV:  26    -0.566244477740E+03   -0.97673E-04   -0.65742E-07 14112   0.176E-03    0.430E-03
DAV:  27    -0.566244542664E+03   -0.64923E-04   -0.38511E-07 13368   0.132E-03    0.384E-03
DAV:  28    -0.566244638972E+03   -0.96309E-04   -0.87551E-07 14504   0.121E-03    0.212E-03
DAV:  29    -0.566244665926E+03   -0.26954E-04   -0.17951E-07 13448   0.937E-04    0.172E-03
DAV:  30    -0.566244687248E+03   -0.21322E-04   -0.21102E-07 13504   0.708E-04    0.138E-03
DAV:  31    -0.566244699318E+03   -0.12070E-04   -0.88953E-08 13176   0.646E-04    0.142E-03
DAV:  32    -0.566244712975E+03   -0.13657E-04   -0.10260E-07 13072   0.693E-04    0.145E-03
DAV:  33    -0.566244720177E+03   -0.72019E-05   -0.66055E-08 13048   0.594E-04    0.149E-03
DAV:  34    -0.566244724757E+03   -0.45800E-05   -0.64042E-08 12928   0.434E-04    0.116E-03
DAV:  35    -0.566244727494E+03   -0.27365E-05   -0.30289E-08 13168   0.435E-04    0.969E-04
DAV:  36    -0.566244734986E+03   -0.74923E-05   -0.29552E-08 12984   0.415E-04    0.890E-04
DAV:  37    -0.566244742413E+03   -0.74273E-05   -0.17936E-08 13000   0.350E-04    0.775E-04
DAV:  38    -0.566244750523E+03   -0.81093E-05   -0.12469E-08 12672   0.246E-04    0.748E-04
DAV:  39    -0.566244759511E+03   -0.89880E-05   -0.15668E-08 12752   0.231E-04    0.661E-04
DAV:  40    -0.566244770492E+03   -0.10982E-04   -0.31761E-08 12832   0.216E-04    0.614E-04
DAV:  41    -0.566244773946E+03   -0.34533E-05   -0.10383E-08 13080   0.166E-04    0.593E-04
DAV:  42    -0.566244776599E+03   -0.26531E-05   -0.88458E-09 12744   0.128E-04    0.591E-04
DAV:  43    -0.566244777818E+03   -0.12193E-05   -0.50996E-09 13008   0.107E-04    0.571E-04
DAV:  44    -0.566244778760E+03   -0.94227E-06   -0.41391E-09 12800   0.843E-05
   6 F= -.61532483E+03 E0= -.61521065E+03  d E =-.197231E+00  mag=    22.8223
       N       E                     dE             d eps       ncg     rms          rms(c)
DAV:   1    -0.565928197261E+03    0.31658E+00   -0.31766E+01 25232   0.133E+01    0.113E+00
DAV:   2    -0.566285117785E+03   -0.35692E+00   -0.35950E+00 21271   0.254E+00    0.159E+00
DAV:   3    -0.566508401545E+03   -0.22328E+00   -0.47359E-01 22129   0.161E+00    0.487E+00
DAV:   4    -0.566261287954E+03    0.24711E+00   -0.33054E-01 22567   0.136E+00    0.788E-01
DAV:   5    -0.566260138022E+03    0.11499E-02   -0.25445E-02 21777   0.456E-01    0.615E-01
DAV:   6    -0.566258542693E+03    0.15953E-02   -0.10103E-02 21300   0.302E-01    0.549E-01
DAV:   7    -0.566257338068E+03    0.12046E-02   -0.60194E-03 21287   0.261E-01    0.379E-01
DAV:   8    -0.566256375190E+03    0.96288E-03   -0.27525E-03 21354   0.178E-01    0.197E-01
DAV:   9    -0.566256113394E+03    0.26180E-03   -0.10932E-03 21624   0.109E-01    0.997E-02
DAV:  10    -0.566256105246E+03    0.81479E-05   -0.37072E-04 21424   0.672E-02    0.112E-01
DAV:  11    -0.566256012012E+03    0.93234E-04   -0.17772E-04 21688   0.558E-02    0.717E-02
DAV:  12    -0.566255947534E+03    0.64478E-04   -0.60130E-05 21496   0.301E-02    0.398E-02
DAV:  13    -0.566255897716E+03    0.49819E-04   -0.26019E-05 21296   0.156E-02    0.250E-02
DAV:  14    -0.566255867266E+03    0.30450E-04   -0.12209E-05 20408   0.134E-02    0.245E-02
DAV:  15    -0.566255837387E+03    0.29879E-04   -0.71322E-06 16592   0.103E-02    0.120E-02
DAV:  16    -0.566255804803E+03    0.32584E-04   -0.32538E-06 16440   0.576E-03    0.907E-03
DAV:  17    -0.566255789459E+03    0.15344E-04   -0.16083E-06 13312   0.484E-03    0.103E-02
DAV:  18    -0.566255781987E+03    0.74727E-05   -0.88109E-07 12904   0.382E-03    0.878E-03
DAV:  19    -0.566255782058E+03   -0.71479E-07   -0.53816E-07 12904   0.297E-03
   7 F= -.61534879E+03 E0= -.61523474E+03  d E =-.221186E+00  mag=    22.7958
       N       E                     dE             d eps       ncg     rms          rms(c)
DAV:   1    -0.565416199961E+03    0.83958E+00   -0.10991E+02 22567   0.214E+01    0.195E+00
DAV:   2    -0.566750763299E+03   -0.13346E+01   -0.10238E+01 21504   0.453E+00    0.592E+00
DAV:   3    -0.566519821333E+03    0.23094E+00   -0.11081E+00 21721   0.275E+00    0.425E+00
DAV:   4    -0.566346529208E+03    0.17329E+00   -0.19899E-01 21583   0.121E+00    0.133E+00
DAV:   5    -0.566336875258E+03    0.96539E-02   -0.39279E-02 21402   0.655E-01    0.997E-01
DAV:   6    -0.566331922702E+03    0.49526E-02   -0.21177E-02 21228   0.459E-01    0.684E-01
DAV:   7    -0.566330665255E+03    0.12574E-02   -0.16468E-02 21319   0.420E-01    0.678E-01
DAV:   8    -0.566326574818E+03    0.40904E-02   -0.83262E-03 21488   0.341E-01    0.435E-01
DAV:   9    -0.566326340482E+03    0.23434E-03   -0.43141E-03 21504   0.232E-01    0.408E-01
DAV:  10    -0.566325068891E+03    0.12716E-02   -0.15721E-03 21408   0.153E-01    0.134E-01
DAV:  11    -0.566325013118E+03    0.55772E-04   -0.39131E-04 21600   0.710E-02    0.903E-02
DAV:  12    -0.566325108904E+03   -0.95786E-04   -0.21423E-04 21608   0.557E-02    0.102E-01
DAV:  13    -0.566325153454E+03   -0.44550E-04   -0.13385E-04 21608   0.456E-02    0.785E-02
DAV:  14    -0.566325227784E+03   -0.74330E-04   -0.61042E-05 21512   0.296E-02    0.450E-02
DAV:  15    -0.566325296703E+03   -0.68919E-04   -0.31013E-05 21392   0.206E-02    0.360E-02
DAV:  16    -0.566325392485E+03   -0.95781E-04   -0.14657E-05 20984   0.142E-02    0.287E-02
DAV:  17    -0.566325440737E+03   -0.48253E-04   -0.89735E-06 18648   0.115E-02    0.305E-02
DAV:  18    -0.566325494537E+03   -0.53800E-04   -0.69593E-06 16560   0.108E-02    0.262E-02
DAV:  19    -0.566325521146E+03   -0.26609E-04   -0.67951E-06 17832   0.946E-03    0.220E-02
DAV:  20    -0.566325439519E+03    0.81627E-04   -0.86813E-06 18304   0.987E-03    0.307E-02
DAV:  21    -0.566325366137E+03    0.73382E-04   -0.63664E-06 17824   0.105E-02    0.300E-02
DAV:  22    -0.566325286284E+03    0.79852E-04   -0.93837E-06 18196   0.102E-02    0.336E-02
DAV:  23    -0.566325184331E+03    0.10195E-03   -0.16329E-05 18344   0.121E-02    0.146E-02
DAV:  24    -0.566325193251E+03   -0.89195E-05   -0.53186E-06 17824   0.788E-03    0.131E-02
DAV:  25    -0.566325251572E+03   -0.58321E-04   -0.20857E-06 13645   0.509E-03    0.116E-02
DAV:  26    -0.566325367103E+03   -0.11553E-03   -0.12637E-06 14000   0.354E-03    0.104E-02
DAV:  27    -0.566325547091E+03   -0.17999E-03   -0.20040E-06 14376   0.442E-03    0.692E-03
DAV:  28    -0.566325750501E+03   -0.20341E-03   -0.20712E-06 14736   0.386E-03    0.662E-03
DAV:  29    -0.566325923017E+03   -0.17252E-03   -0.10174E-06 14144   0.218E-03    0.524E-03
DAV:  30    -0.566326061063E+03   -0.13805E-03   -0.54876E-07 13552   0.178E-03    0.395E-03
DAV:  31    -0.566326258562E+03   -0.19750E-03   -0.89413E-07 14173   0.177E-03    0.306E-03
DAV:  32    -0.566326490567E+03   -0.23201E-03   -0.11695E-06 14757   0.177E-03    0.246E-03
DAV:  33    -0.566326697525E+03   -0.20696E-03   -0.91983E-07 14448   0.148E-03    0.204E-03
DAV:  34    -0.566326827222E+03   -0.12970E-03   -0.41139E-07 13536   0.115E-03    0.207E-03
DAV:  35    -0.566326921175E+03   -0.93953E-04   -0.24486E-07 13280   0.772E-04    0.140E-03
DAV:  36    -0.566327017853E+03   -0.96679E-04   -0.22751E-07 13352   0.789E-04    0.142E-03
DAV:  37    -0.566327089134E+03   -0.71281E-04   -0.15528E-07 13136   0.668E-04    0.172E-03
DAV:  38    -0.566327130018E+03   -0.40884E-04   -0.20718E-07 12789   0.112E-03    0.523E-03
DAV:  39    -0.566327160249E+03   -0.30231E-04   -0.16838E-07 12984   0.876E-04    0.233E-03
DAV:  40    -0.566327180174E+03   -0.19925E-04   -0.14313E-07 13064   0.854E-04    0.112E-03
DAV:  41    -0.566327195003E+03   -0.14828E-04   -0.97507E-08 12904   0.654E-04    0.315E-03
DAV:  42    -0.566327200131E+03   -0.51281E-05   -0.23972E-08 12832   0.256E-04    0.311E-03
DAV:  43    -0.566327203119E+03   -0.29886E-05   -0.24484E-08 12800   0.382E-04    0.184E-03
DAV:  44    -0.566327205366E+03   -0.22466E-05   -0.14678E-08 12760   0.242E-04    0.121E-03
DAV:  45    -0.566327206495E+03   -0.11295E-05   -0.64024E-09 12768   0.179E-04    0.805E-04
DAV:  46    -0.566327207027E+03   -0.53155E-06   -0.30330E-09 12896   0.109E-04
   8 F= -.61545484E+03 E0= -.61534069E+03  d E =-.106050E+00  mag=    22.5140
       N       E                     dE             d eps       ncg     rms          rms(c)
DAV:   1    -0.566326318591E+03    0.88790E-03   -0.36523E-02 22696   0.391E-01    0.356E-02
DAV:   2    -0.566326721482E+03   -0.40289E-03   -0.32855E-03 21080   0.805E-02    0.966E-02
DAV:   3    -0.566326690884E+03    0.30598E-04   -0.34421E-04 21183   0.474E-02    0.869E-02
DAV:   4    -0.566326620307E+03    0.70577E-04   -0.77872E-05 21074   0.246E-02    0.310E-02
DAV:   5    -0.566326616010E+03    0.42971E-05   -0.11740E-05 19836   0.124E-02    0.155E-02
DAV:   6    -0.566326618017E+03   -0.20070E-05   -0.66115E-06 19000   0.802E-03    0.129E-02
DAV:   7    -0.566326618124E+03   -0.10664E-06   -0.57880E-06 17898   0.808E-03
   9 F= -.61545488E+03 E0= -.61534074E+03  d E =-.106095E+00  mag=    22.5132
       N       E                     dE             d eps       ncg     rms          rms(c)
DAV:   1    -0.565959830388E+03    0.36679E+00   -0.48581E+01 23116   0.143E+01    0.131E+00
DAV:   2    -0.566499585141E+03   -0.53975E+00   -0.43810E+00 21448   0.294E+00    0.341E+00
DAV:   3    -0.566515604232E+03   -0.16019E-01   -0.66617E-01 22034   0.193E+00    0.382E+00
DAV:   4    -0.566376091362E+03    0.13951E+00   -0.15053E-01 21487   0.109E+00    0.129E+00
DAV:   5    -0.566359827194E+03    0.16264E-01   -0.21702E-02 21575   0.512E-01    0.531E-01
DAV:   6    -0.566359867255E+03   -0.40061E-04   -0.98645E-03 21456   0.271E-01    0.478E-01
DAV:   7    -0.566357653083E+03    0.22142E-02   -0.62277E-03 21412   0.229E-01    0.276E-01
DAV:   8    -0.566357151741E+03    0.50134E-03   -0.26562E-03 21232   0.179E-01    0.221E-01
DAV:   9    -0.566356990972E+03    0.16077E-03   -0.11831E-03 21584   0.130E-01    0.207E-01
DAV:  10    -0.566356661151E+03    0.32982E-03   -0.51225E-04 21368   0.910E-02    0.986E-02
DAV:  11    -0.566356569777E+03    0.91373E-04   -0.13382E-04 21544   0.443E-02    0.784E-02
DAV:  12    -0.566356492373E+03    0.77404E-04   -0.62088E-05 22320   0.276E-02    0.477E-02
DAV:  13    -0.566356483199E+03    0.91742E-05   -0.32924E-05 21368   0.220E-02    0.483E-02
DAV:  14    -0.566356467237E+03    0.15961E-04   -0.22685E-05 21136   0.186E-02    0.294E-02
DAV:  15    -0.566356469078E+03   -0.18401E-05   -0.11564E-05 19128   0.120E-02    0.266E-02
DAV:  16    -0.566356478675E+03   -0.95975E-05   -0.53779E-06 17560   0.895E-03    0.269E-02
DAV:  17    -0.566356484030E+03   -0.53551E-05   -0.49717E-06 15600   0.923E-03    0.230E-02
DAV:  18    -0.566356493093E+03   -0.90627E-05   -0.74382E-06 16248   0.108E-02    0.281E-02
DAV:  19    -0.566356471970E+03    0.21123E-04   -0.76428E-06 17192   0.108E-02    0.286E-02
DAV:  20    -0.566356414268E+03    0.57703E-04   -0.51149E-06 17728   0.812E-03    0.334E-02
DAV:  21    -0.566356205839E+03    0.20843E-03   -0.59653E-06 17608   0.846E-03    0.212E-02
DAV:  22    -0.566355980341E+03    0.22550E-03   -0.82245E-06 18408   0.995E-03    0.175E-02
DAV:  23    -0.566355867383E+03    0.11296E-03   -0.38688E-06 16304   0.775E-03    0.776E-03
DAV:  24    -0.566355877127E+03   -0.97435E-05   -0.14959E-06 13392   0.423E-03    0.887E-03
DAV:  25    -0.566355911915E+03   -0.34788E-04   -0.10408E-06 13040   0.371E-03    0.727E-03
DAV:  26    -0.566355999740E+03   -0.87825E-04   -0.11720E-06 13952   0.318E-03    0.500E-03
DAV:  27    -0.566356142291E+03   -0.14255E-03   -0.13014E-06 14488   0.277E-03    0.535E-03
DAV:  28    -0.566356254392E+03   -0.11210E-03   -0.65291E-07 13864   0.224E-03    0.494E-03
DAV:  29    -0.566356431052E+03   -0.17666E-03   -0.85439E-07 14256   0.167E-03    0.431E-03
DAV:  30    -0.566356573476E+03   -0.14242E-03   -0.49198E-07 13872   0.167E-03    0.342E-03
DAV:  31    -0.566356870487E+03   -0.29701E-03   -0.16111E-06 14680   0.181E-03    0.282E-03
DAV:  32    -0.566357092361E+03   -0.22187E-03   -0.95856E-07 14360   0.149E-03    0.214E-03
DAV:  33    -0.566357278518E+03   -0.18616E-03   -0.55791E-07 14168   0.123E-03    0.231E-03
DAV:  34    -0.566357387583E+03   -0.10906E-03   -0.22980E-07 13616   0.107E-03    0.124E-03
DAV:  35    -0.566357466328E+03   -0.78745E-04   -0.13443E-07 13344   0.660E-04    0.116E-03
DAV:  36    -0.566357549090E+03   -0.82762E-04   -0.15176E-07 13352   0.620E-04    0.118E-03
DAV:  37    -0.566357592271E+03   -0.43181E-04   -0.80541E-08 12908   0.514E-04    0.138E-03
DAV:  38    -0.566357615876E+03   -0.23605E-04   -0.46427E-08 12992   0.393E-04    0.101E-03
DAV:  39    -0.566357627355E+03   -0.11479E-04   -0.26914E-08 12992   0.326E-04    0.723E-04
DAV:  40    -0.566357637777E+03   -0.10422E-04   -0.31608E-08 12880   0.280E-04    0.966E-04
DAV:  41    -0.566357640049E+03   -0.22720E-05   -0.11398E-08 13024   0.165E-04    0.760E-04
DAV:  42    -0.566357640353E+03   -0.30361E-06   -0.37177E-09 12960   0.112E-04
  10 F= -.61551014E+03 E0= -.61539559E+03  d E =-.552591E-01  mag=    22.2742
       N       E                     dE             d eps       ncg     rms          rms(c)
DAV:   1    -0.566288817330E+03    0.68823E-01   -0.79809E+00 23192   0.581E+00    0.535E-01
DAV:   2    -0.566377899078E+03   -0.89082E-01   -0.71126E-01 21352   0.119E+00    0.143E+00
DAV:   3    -0.566378857285E+03   -0.95821E-03   -0.10910E-01 21745   0.786E-01    0.153E+00
DAV:   4    -0.566357370666E+03    0.21487E-01   -0.29986E-02 21412   0.456E-01    0.598E-01
DAV:   5    -0.566353816526E+03    0.35541E-02   -0.37516E-03 21415   0.222E-01    0.205E-01
DAV:   6    -0.566353875946E+03   -0.59420E-04   -0.16189E-03 21888   0.108E-01    0.184E-01
DAV:   7    -0.566353580216E+03    0.29573E-03   -0.10556E-03 21480   0.931E-02    0.116E-01
DAV:   8    -0.566353438863E+03    0.14135E-03   -0.44205E-04 21384   0.719E-02    0.643E-02
DAV:   9    -0.566353391252E+03    0.47610E-04   -0.13687E-04 21288   0.357E-02    0.339E-02
DAV:  10    -0.566353375720E+03    0.15532E-04   -0.38310E-05 21165   0.224E-02    0.396E-02
DAV:  11    -0.566353357674E+03    0.18047E-04   -0.18259E-05 21272   0.180E-02    0.380E-02
DAV:  12    -0.566353334708E+03    0.22966E-04   -0.10154E-05 18872   0.132E-02    0.189E-02
DAV:  13    -0.566353319292E+03    0.15416E-04   -0.45864E-06 18360   0.712E-03    0.140E-02
DAV:  14    -0.566353309276E+03    0.10015E-04   -0.28829E-06 13504   0.596E-03    0.127E-02
DAV:  15    -0.566353306601E+03    0.26750E-05   -0.17025E-06 12904   0.475E-03    0.130E-02
DAV:  16    -0.566353298747E+03    0.78541E-05   -0.11259E-06 13096   0.392E-03    0.105E-02
DAV:  17    -0.566353291099E+03    0.76483E-05   -0.11160E-06 13280   0.450E-03    0.101E-02
DAV:  18    -0.566353267235E+03    0.23864E-04   -0.15288E-06 13688   0.464E-03    0.121E-02
DAV:  19    -0.566353226944E+03    0.40291E-04   -0.12799E-06 13304   0.410E-03    0.150E-02
DAV:  20    -0.566353164582E+03    0.62362E-04   -0.14585E-06 12968   0.483E-03    0.154E-02
DAV:  21    -0.566353074491E+03    0.90090E-04   -0.16109E-06 13384   0.482E-03    0.775E-03
DAV:  22    -0.566353011298E+03    0.63194E-04   -0.11477E-06 13120   0.367E-03    0.533E-03
DAV:  23    -0.566352988347E+03    0.22950E-04   -0.51240E-07 13056   0.278E-03    0.391E-03
DAV:  24    -0.566352992889E+03   -0.45421E-05   -0.20809E-07 13016   0.160E-03    0.317E-03
DAV:  25    -0.566353041317E+03   -0.48427E-04   -0.47381E-07 13448   0.130E-03    0.238E-03
DAV:  26    -0.566353082510E+03   -0.41193E-04   -0.29523E-07 13224   0.137E-03    0.280E-03
DAV:  27    -0.566353128613E+03   -0.46103E-04   -0.23580E-07 13208   0.106E-03    0.268E-03
DAV:  28    -0.566353169829E+03   -0.41216E-04   -0.15778E-07 13216   0.907E-04    0.236E-03
DAV:  29    -0.566353212734E+03   -0.42905E-04   -0.13178E-07 13040   0.861E-04    0.187E-03
DAV:  30    -0.566353281598E+03   -0.68864E-04   -0.22487E-07 13304   0.760E-04    0.121E-03
DAV:  31    -0.566353383434E+03   -0.10184E-03   -0.42177E-07 13872   0.771E-04    0.144E-03
DAV:  32    -0.566353441179E+03   -0.57745E-04   -0.14440E-07 13512   0.632E-04    0.105E-03
DAV:  33    -0.566353491854E+03   -0.50675E-04   -0.98063E-08 13304   0.435E-04    0.927E-04
DAV:  34    -0.566353528565E+03   -0.36711E-04   -0.48374E-08 13296   0.379E-04    0.787E-04
DAV:  35    -0.566353550690E+03   -0.22125E-04   -0.24110E-08 13040   0.308E-04    0.755E-04
DAV:  36    -0.566353579582E+03   -0.28892E-04   -0.33509E-08 13008   0.243E-04    0.671E-04
DAV:  37    -0.566353589453E+03   -0.98711E-05   -0.12852E-08 13064   0.187E-04    0.676E-04
DAV:  38    -0.566353594149E+03   -0.46957E-05   -0.70669E-09 12736   0.144E-04    0.648E-04
DAV:  39    -0.566353595406E+03   -0.12571E-05   -0.27507E-09 12960   0.999E-05    0.648E-04
DAV:  40    -0.566353596096E+03   -0.69034E-06   -0.15731E-09 12712   0.675E-05
  11 F= -.61551552E+03 E0= -.61540077E+03  d E =-.606345E-01  mag=    22.1692
       N       E                     dE             d eps       ncg     rms          rms(c)
DAV:   1    -0.566125710041E+03    0.22789E+00   -0.25336E+01 25024   0.120E+01    0.953E-01
DAV:   2    -0.566432474335E+03   -0.30676E+00   -0.28814E+00 21308   0.230E+00    0.189E+00
DAV:   3    -0.566519111582E+03   -0.86637E-01   -0.37187E-01 21905   0.140E+00    0.341E+00
DAV:   4    -0.566397436465E+03    0.12168E+00   -0.12910E-01 21868   0.930E-01    0.814E-01
DAV:   5    -0.566393229323E+03    0.42071E-02   -0.10705E-02 21583   0.362E-01    0.431E-01
DAV:   6    -0.566393540123E+03   -0.31080E-03   -0.59620E-03 21471   0.234E-01    0.431E-01
DAV:   7    -0.566391960142E+03    0.15800E-02   -0.38054E-03 21327   0.195E-01    0.214E-01
DAV:   8    -0.566391609776E+03    0.35037E-03   -0.13894E-03 21424   0.137E-01    0.139E-01
DAV:   9    -0.566391432049E+03    0.17773E-03   -0.69657E-04 21312   0.845E-02    0.747E-02
DAV:  10    -0.566391394614E+03    0.37434E-04   -0.18368E-04 21512   0.475E-02    0.931E-02
DAV:  11    -0.566391329835E+03    0.64779E-04   -0.82909E-05 21672   0.374E-02    0.687E-02
DAV:  12    -0.566391261817E+03    0.68018E-04   -0.39987E-05 21760   0.234E-02    0.353E-02
DAV:  13    -0.566391221062E+03    0.40755E-04   -0.16688E-05 21032   0.134E-02    0.218E-02
DAV:  14    -0.566391200179E+03    0.20883E-04   -0.93142E-06 19064   0.109E-02    0.249E-02
DAV:  15    -0.566391190994E+03    0.91852E-05   -0.61621E-06 16224   0.975E-03    0.227E-02
DAV:  16    -0.566391178874E+03    0.12119E-04   -0.37011E-06 15488   0.731E-03    0.169E-02
DAV:  17    -0.566391171758E+03    0.71160E-05   -0.28933E-06 14328   0.672E-03    0.181E-02
DAV:  18    -0.566391164336E+03    0.74219E-05   -0.30631E-06 13640   0.720E-03    0.206E-02
DAV:  19    -0.566391148390E+03    0.15947E-04   -0.38020E-06 14160   0.764E-03    0.256E-02
DAV:  20    -0.566391071927E+03    0.76463E-04   -0.42129E-06 14288   0.836E-03    0.247E-02
DAV:  21    -0.566390885199E+03    0.18673E-03   -0.44151E-06 15040   0.801E-03    0.134E-02
DAV:  22    -0.566390670218E+03    0.21498E-03   -0.43584E-06 17448   0.641E-03    0.872E-03
DAV:  23    -0.566390626723E+03    0.43494E-04   -0.15406E-06 14432   0.395E-03    0.801E-03
DAV:  24    -0.566390644819E+03   -0.18095E-04   -0.63117E-07 13056   0.294E-03    0.662E-03
DAV:  25    -0.566390695499E+03   -0.50680E-04   -0.67296E-07 13488   0.251E-03    0.366E-03
DAV:  26    -0.566390805470E+03   -0.10997E-03   -0.99560E-07 14128   0.215E-03    0.451E-03
DAV:  27    -0.566390875108E+03   -0.69639E-04   -0.31877E-07 13456   0.168E-03    0.398E-03
DAV:  28    -0.566390984088E+03   -0.10898E-03   -0.41851E-07 13552   0.147E-03    0.373E-03
DAV:  29    -0.566391081149E+03   -0.97061E-04   -0.31639E-07 13368   0.150E-03    0.266E-03
DAV:  30    -0.566391214914E+03   -0.13376E-03   -0.42231E-07 13656   0.132E-03    0.224E-03
DAV:  31    -0.566391443261E+03   -0.22835E-03   -0.10305E-06 14376   0.137E-03    0.275E-03
DAV:  32    -0.566391570453E+03   -0.12719E-03   -0.41685E-07 13968   0.116E-03    0.217E-03
DAV:  33    -0.566391669265E+03   -0.98811E-04   -0.26523E-07 13576   0.868E-04    0.132E-03
DAV:  34    -0.566391743809E+03   -0.74545E-04   -0.13575E-07 13448   0.649E-04    0.106E-03
DAV:  35    -0.566391818039E+03   -0.74229E-04   -0.11158E-07 13424   0.553E-04    0.946E-04
DAV:  36    -0.566391850005E+03   -0.31966E-04   -0.42845E-08 13304   0.422E-04    0.851E-04
DAV:  37    -0.566391878299E+03   -0.28294E-04   -0.37823E-08 13040   0.329E-04    0.744E-04
DAV:  38    -0.566391893699E+03   -0.15400E-04   -0.21496E-08 13048   0.256E-04    0.689E-04
DAV:  39    -0.566391902655E+03   -0.89561E-05   -0.13761E-08 12808   0.193E-04    0.658E-04
DAV:  40    -0.566391907303E+03   -0.46487E-05   -0.92764E-09 12872   0.159E-04    0.635E-04
DAV:  41    -0.566391908514E+03   -0.12105E-05   -0.36681E-09 12952   0.103E-04    0.619E-04
DAV:  42    -0.566391908693E+03   -0.17905E-06   -0.97845E-10 12920   0.622E-05
  12 F= -.61555781E+03 E0= -.61544266E+03  d E =-.422933E-01  mag=    21.9882
       N       E                     dE             d eps       ncg     rms          rms(c)
DAV:   1    -0.565295423840E+03    0.10965E+01   -0.10642E+02 25068   0.245E+01    0.198E+00
DAV:   2    -0.566704753558E+03   -0.14093E+01   -0.12430E+01 21376   0.485E+00    0.479E+00
DAV:   3    -0.566845540479E+03   -0.14079E+00   -0.12118E+00 22033   0.295E+00    0.613E+00
DAV:   4    -0.566458391803E+03    0.38715E+00   -0.35537E-01 21727   0.170E+00    0.157E+00
DAV:   5    -0.566439404765E+03    0.18987E-01   -0.47090E-02 21517   0.739E-01    0.870E-01
DAV:   6    -0.566442415908E+03   -0.30111E-02   -0.25742E-02 21615   0.486E-01    0.964E-01
DAV:   7    -0.566434149229E+03    0.82667E-02   -0.15732E-02 21434   0.402E-01    0.466E-01
DAV:   8    -0.566432830676E+03    0.13186E-02   -0.73740E-03 21424   0.311E-01    0.350E-01
DAV:   9    -0.566431599130E+03    0.12315E-02   -0.30547E-03 21552   0.196E-01    0.158E-01
DAV:  10    -0.566431585534E+03    0.13595E-04   -0.10425E-03 21456   0.107E-01    0.196E-01
DAV:  11    -0.566431410621E+03    0.17491E-03   -0.41435E-04 21552   0.836E-02    0.154E-01
DAV:  12    -0.566431228483E+03    0.18214E-03   -0.19193E-04 21752   0.525E-02    0.852E-02
DAV:  13    -0.566431195802E+03    0.32681E-04   -0.73142E-05 21552   0.298E-02    0.505E-02
DAV:  14    -0.566431223926E+03   -0.28124E-04   -0.49527E-05 21720   0.253E-02    0.570E-02
DAV:  15    -0.566431236996E+03   -0.13071E-04   -0.33134E-05 21472   0.222E-02    0.451E-02
DAV:  16    -0.566431269808E+03   -0.32811E-04   -0.15458E-05 20808   0.146E-02    0.368E-02
DAV:  17    -0.566431319464E+03   -0.49656E-04   -0.12922E-05 20120   0.145E-02    0.391E-02
DAV:  18    -0.566431358855E+03   -0.39391E-04   -0.15221E-05 19080   0.158E-02    0.414E-02
DAV:  19    -0.566431384576E+03   -0.25721E-04   -0.18517E-05 18552   0.169E-02    0.547E-02
DAV:  20    -0.566431309117E+03    0.75459E-04   -0.16541E-05 18504   0.168E-02    0.574E-02
DAV:  21    -0.566430953917E+03    0.35520E-03   -0.17143E-05 18784   0.151E-02    0.371E-02
DAV:  22    -0.566430479018E+03    0.47490E-03   -0.24837E-05 19056   0.156E-02    0.190E-02
DAV:  23    -0.566430344806E+03    0.13421E-03   -0.93096E-06 18816   0.979E-03    0.172E-02
DAV:  24    -0.566430393128E+03   -0.48323E-04   -0.29539E-06 15248   0.660E-03    0.148E-02
DAV:  25    -0.566430533814E+03   -0.14069E-03   -0.26645E-06 14992   0.534E-03    0.909E-03
DAV:  26    -0.566430712997E+03   -0.17918E-03   -0.27148E-06 14456   0.565E-03    0.121E-02
DAV:  27    -0.566430970950E+03   -0.25795E-03   -0.25140E-06 14872   0.472E-03    0.863E-03
DAV:  28    -0.566431208999E+03   -0.23805E-03   -0.12500E-06 14272   0.294E-03    0.749E-03
DAV:  29    -0.566431555881E+03   -0.34688E-03   -0.13875E-06 14744   0.270E-03    0.556E-03
DAV:  30    -0.566431875042E+03   -0.31916E-03   -0.10583E-06 14224   0.273E-03    0.484E-03
DAV:  31    -0.566432544270E+03   -0.66923E-03   -0.35494E-06 16008   0.299E-03    0.606E-03
DAV:  32    -0.566432929085E+03   -0.38481E-03   -0.17942E-06 15456   0.247E-03    0.493E-03
DAV:  33    -0.566433225954E+03   -0.29687E-03   -0.11389E-06 14640   0.194E-03    0.319E-03
DAV:  34    -0.566433416099E+03   -0.19014E-03   -0.44311E-07 14000   0.152E-03    0.232E-03
DAV:  35    -0.566433627675E+03   -0.21158E-03   -0.50467E-07 14096   0.133E-03    0.204E-03
DAV:  36    -0.566433726104E+03   -0.98429E-04   -0.19533E-07 13528   0.107E-03    0.161E-03
DAV:  37    -0.566433812737E+03   -0.86633E-04   -0.21209E-07 13464   0.756E-04    0.110E-03
DAV:  38    -0.566433855920E+03   -0.43183E-04   -0.96309E-08 13272   0.530E-04    0.944E-04
DAV:  39    -0.566433906603E+03   -0.50683E-04   -0.16282E-07 13240   0.480E-04    0.831E-04
DAV:  40    -0.566433926851E+03   -0.20248E-04   -0.80560E-08 13208   0.409E-04    0.709E-04
DAV:  41    -0.566433932552E+03   -0.57016E-05   -0.24741E-08 12984   0.250E-04    0.621E-04
DAV:  42    -0.566433934801E+03   -0.22484E-05   -0.11792E-08 12853   0.155E-04    0.617E-04
DAV:  43    -0.566433936144E+03   -0.13432E-05   -0.64536E-09 12768   0.118E-04    0.602E-04
DAV:  44    -0.566433936659E+03   -0.51549E-06   -0.30765E-09 12912   0.841E-05
  13 F= -.61560088E+03 E0= -.61548490E+03  d E =-.853639E-01  mag=    21.5780
       N       E                     dE             d eps       ncg     rms          rms(c)
DAV:   1    -0.566102556785E+03    0.33138E+00   -0.34475E+01 24941   0.140E+01    0.114E+00
DAV:   2    -0.566476243159E+03   -0.37369E+00   -0.38304E+00 21250   0.263E+00    0.133E+00
DAV:   3    -0.566657880982E+03   -0.18164E+00   -0.35385E-01 22926   0.148E+00    0.431E+00
DAV:   4    -0.566487295060E+03    0.17059E+00   -0.32990E-01 23287   0.135E+00    0.146E+00
DAV:   5    -0.566462585656E+03    0.24709E-01   -0.27979E-02 21601   0.527E-01    0.524E-01
DAV:   6    -0.566462199418E+03    0.38624E-03   -0.82072E-03 21364   0.279E-01    0.459E-01
DAV:   7    -0.566461442397E+03    0.75702E-03   -0.52155E-03 21330   0.246E-01    0.338E-01
DAV:   8    -0.566460429121E+03    0.10133E-02   -0.27543E-03 21504   0.195E-01    0.176E-01
DAV:   9    -0.566460284617E+03    0.14450E-03   -0.78774E-04 21504   0.946E-02    0.136E-01
DAV:  10    -0.566460064554E+03    0.22006E-03   -0.27210E-04 21341   0.587E-02    0.685E-02
DAV:  11    -0.566460079417E+03   -0.14863E-04   -0.12244E-04 21400   0.416E-02    0.781E-02
DAV:  12    -0.566460036429E+03    0.42987E-04   -0.63105E-05 21088   0.314E-02    0.316E-02
DAV:  13    -0.566460038967E+03   -0.25379E-05   -0.26449E-05 21024   0.171E-02    0.174E-02
DAV:  14    -0.566460056749E+03   -0.17782E-04   -0.60375E-06 20360   0.824E-03    0.152E-02
DAV:  15    -0.566460068367E+03   -0.11618E-04   -0.41375E-06 14976   0.778E-03    0.157E-02
DAV:  16    -0.566460094843E+03   -0.26476E-04   -0.26201E-06 13352   0.627E-03    0.936E-03
DAV:  17    -0.566460111859E+03   -0.17017E-04   -0.15335E-06 13152   0.424E-03    0.834E-03
DAV:  18    -0.566460125539E+03   -0.13680E-04   -0.76521E-07 13024   0.314E-03    0.986E-03
DAV:  19    -0.566460137682E+03   -0.12143E-04   -0.49710E-07 12984   0.283E-03    0.869E-03
DAV:  20    -0.566460147196E+03   -0.95142E-05   -0.41038E-07 12992   0.270E-03    0.851E-03
DAV:  21    -0.566460152202E+03   -0.50052E-05   -0.93525E-07 13736   0.327E-03    0.667E-03
DAV:  22    -0.566460136904E+03    0.15298E-04   -0.18976E-06 14400   0.363E-03    0.768E-03
DAV:  23    -0.566460136283E+03    0.62049E-06   -0.68277E-07 13920   0.219E-03
  14 F= -.61565411E+03 E0= -.61553801E+03  d E =-.532308E-01  mag=    21.5064
       N       E                     dE             d eps       ncg     rms          rms(c)
DAV:   1    -0.563283710093E+03    0.31764E+01   -0.28918E+02 24972   0.406E+01    0.337E+00
DAV:   2    -0.566833188866E+03   -0.35495E+01   -0.33980E+01 21432   0.791E+00    0.625E+00
DAV:   3    -0.568236872111E+03   -0.14037E+01   -0.26632E+00 23098   0.489E+00    0.123E+01
DAV:   4    -0.566622417112E+03    0.16145E+01   -0.16724E+00 23039   0.348E+00    0.381E+00
DAV:   5    -0.566478122647E+03    0.14429E+00   -0.19724E-01 21487   0.151E+00    0.169E+00
DAV:   6    -0.566463127945E+03    0.14995E-01   -0.75981E-02 21546   0.849E-01    0.127E+00
DAV:   7    -0.566462818126E+03    0.30982E-03   -0.45770E-02 21533   0.725E-01    0.121E+00
DAV:   8    -0.566449739523E+03    0.13079E-01   -0.26834E-02 21432   0.637E-01    0.725E-01
DAV:   9    -0.566452480676E+03   -0.27412E-02   -0.17715E-02 21496   0.500E-01    0.929E-01
DAV:  10    -0.566446503421E+03    0.59773E-02   -0.91985E-03 21429   0.375E-01    0.376E-01
DAV:  11    -0.566445479919E+03    0.10235E-02   -0.22292E-03 21584   0.173E-01    0.159E-01
DAV:  12    -0.566446115282E+03   -0.63536E-03   -0.68179E-04 21600   0.857E-02    0.142E-01
DAV:  13    -0.566446479711E+03   -0.36443E-03   -0.34706E-04 21648   0.710E-02    0.115E-01
DAV:  14    -0.566446794444E+03   -0.31473E-03   -0.16962E-04 21520   0.517E-02    0.653E-02
DAV:  15    -0.566447340638E+03   -0.54619E-03   -0.69131E-05 21512   0.312E-02    0.438E-02
DAV:  16    -0.566447753284E+03   -0.41265E-03   -0.38119E-05 21552   0.240E-02    0.403E-02
DAV:  17    -0.566448359060E+03   -0.60578E-03   -0.23487E-05 21136   0.178E-02    0.337E-02
DAV:  18    -0.566448614082E+03   -0.25502E-03   -0.16710E-05 21016   0.158E-02    0.299E-02
DAV:  19    -0.566448882065E+03   -0.26798E-03   -0.11650E-05 18008   0.124E-02    0.247E-02
DAV:  20    -0.566449106995E+03   -0.22493E-03   -0.61367E-06 17720   0.813E-03    0.257E-02
DAV:  21    -0.566449331561E+03   -0.22457E-03   -0.67492E-06 16832   0.967E-03    0.281E-02
DAV:  22    -0.566449751897E+03   -0.42034E-03   -0.18027E-05 18280   0.121E-02    0.255E-02
DAV:  23    -0.566450035626E+03   -0.28373E-03   -0.17730E-05 18416   0.127E-02    0.219E-02
DAV:  24    -0.566450254405E+03   -0.21878E-03   -0.12420E-05 18448   0.897E-03    0.179E-02
DAV:  25    -0.566450430131E+03   -0.17573E-03   -0.57551E-06 17048   0.589E-03    0.114E-02
DAV:  26    -0.566450679118E+03   -0.24899E-03   -0.39297E-06 16512   0.415E-03    0.962E-03
DAV:  27    -0.566450895231E+03   -0.21611E-03   -0.18428E-06 15264   0.421E-03    0.872E-03
DAV:  28    -0.566451285593E+03   -0.39036E-03   -0.19818E-06 15656   0.344E-03    0.854E-03
DAV:  29    -0.566451514240E+03   -0.22865E-03   -0.72665E-07 13872   0.300E-03    0.699E-03
DAV:  30    -0.566451990220E+03   -0.47598E-03   -0.16058E-06 14853   0.322E-03    0.575E-03
DAV:  31    -0.566452287777E+03   -0.29756E-03   -0.92296E-07 14320   0.253E-03    0.510E-03
DAV:  32    -0.566452597477E+03   -0.30970E-03   -0.12457E-06 14968   0.219E-03    0.416E-03
DAV:  33    -0.566452684519E+03   -0.87041E-04   -0.41112E-07 13464   0.186E-03    0.236E-03
DAV:  34    -0.566452702744E+03   -0.18225E-04   -0.15885E-07 13336   0.118E-03    0.193E-03
DAV:  35    -0.566452711188E+03   -0.84438E-05   -0.98495E-08 13085   0.881E-04    0.130E-03
DAV:  36    -0.566452716446E+03   -0.52582E-05   -0.65313E-08 12944   0.690E-04    0.118E-03
DAV:  37    -0.566452721010E+03   -0.45639E-05   -0.37826E-08 12808   0.531E-04    0.969E-04
DAV:  38    -0.566452725830E+03   -0.48198E-05   -0.17121E-08 13056   0.381E-04    0.101E-03
DAV:  39    -0.566452736189E+03   -0.10360E-04   -0.27302E-08 12893   0.329E-04    0.913E-04
DAV:  40    -0.566452751729E+03   -0.15540E-04   -0.43621E-08 13088   0.349E-04    0.863E-04
DAV:  41    -0.566452771698E+03   -0.19969E-04   -0.80878E-08 13136   0.377E-04    0.696E-04
DAV:  42    -0.566452781653E+03   -0.99544E-05   -0.36805E-08 13152   0.294E-04    0.652E-04
DAV:  43    -0.566452787729E+03   -0.60762E-05   -0.21556E-08 12928   0.245E-04    0.616E-04
DAV:  44    -0.566452791421E+03   -0.36918E-05   -0.17300E-08 12984   0.200E-04    0.574E-04
DAV:  45    -0.566452792548E+03   -0.11269E-05   -0.75265E-09 12968   0.133E-04    0.550E-04
DAV:  46    -0.566452792891E+03   -0.34366E-06   -0.32147E-09 12832   0.838E-05
  15 F= -.61571900E+03 E0= -.61560253E+03  d E =-.118122E+00  mag=    21.1400
       N       E                     dE             d eps       ncg     rms          rms(c)
DAV:   1    -0.566360862352E+03    0.91930E-01   -0.10838E+01 24736   0.767E+00    0.606E-01
DAV:   2    -0.566472909980E+03   -0.11205E+00   -0.11263E+00 21288   0.143E+00    0.862E-01
DAV:   3    -0.566537468433E+03   -0.64558E-01   -0.13736E-01 23571   0.882E-01    0.255E+00
DAV:   4    -0.566470265045E+03    0.67203E-01   -0.10875E-01 23153   0.749E-01    0.623E-01
DAV:   5    -0.566466817911E+03    0.34471E-02   -0.55653E-03 22185   0.243E-01    0.262E-01
DAV:   6    -0.566466921281E+03   -0.10337E-03   -0.22695E-03 21436   0.151E-01    0.269E-01
DAV:   7    -0.566466388719E+03    0.53256E-03   -0.14299E-03 21258   0.125E-01    0.149E-01
DAV:   8    -0.566466249791E+03    0.13893E-03   -0.67429E-04 21602   0.894E-02    0.848E-02
DAV:   9    -0.566466194235E+03    0.55556E-04   -0.14146E-04 21077   0.394E-02    0.643E-02
DAV:  10    -0.566466148209E+03    0.46026E-04   -0.51265E-05 21776   0.258E-02    0.446E-02
DAV:  11    -0.566466126825E+03    0.21384E-04   -0.24552E-05 20957   0.192E-02    0.323E-02
DAV:  12    -0.566466116635E+03    0.10191E-04   -0.13600E-05 20304   0.144E-02    0.209E-02
DAV:  13    -0.566466105527E+03    0.11108E-04   -0.53259E-06 13920   0.827E-03    0.113E-02
DAV:  14    -0.566466104332E+03    0.11954E-05   -0.25515E-06 15032   0.460E-03    0.961E-03
DAV:  15    -0.566466102413E+03    0.19192E-05   -0.14273E-06 12912   0.442E-03    0.110E-02
DAV:  16    -0.566466101229E+03    0.11839E-05   -0.10971E-06 12944   0.410E-03    0.863E-03
DAV:  17    -0.566466101656E+03   -0.42701E-06   -0.62885E-07 12840   0.288E-03
  16 F= -.61574280E+03 E0= -.61562630E+03  d E =-.237965E-01  mag=    21.1024
       N       E                     dE             d eps       ncg     rms          rms(c)
DAV:   1    -0.565530595425E+03    0.93551E+00   -0.97433E+01 24708   0.230E+01    0.184E+00
DAV:   2    -0.566609367682E+03   -0.10788E+01   -0.10330E+01 21354   0.439E+00    0.345E+00
DAV:   3    -0.567037867764E+03   -0.42850E+00   -0.10649E+00 22890   0.271E+00    0.694E+00
DAV:   4    -0.566535258905E+03    0.50261E+00   -0.62273E-01 22370   0.202E+00    0.188E+00
DAV:   5    -0.566501289077E+03    0.33970E-01   -0.46401E-02 21479   0.756E-01    0.838E-01
DAV:   6    -0.566499832300E+03    0.14568E-02   -0.21021E-02 21332   0.464E-01    0.754E-01
DAV:   7    -0.566496469292E+03    0.33630E-02   -0.13407E-02 21432   0.380E-01    0.563E-01
DAV:   8    -0.566494083953E+03    0.23853E-02   -0.68746E-03 21536   0.302E-01    0.327E-01
DAV:   9    -0.566494703698E+03   -0.61975E-03   -0.34706E-03 21392   0.220E-01    0.449E-01
DAV:  10    -0.566493270995E+03    0.14327E-02   -0.18509E-03 21482   0.171E-01    0.201E-01
DAV:  11    -0.566492872551E+03    0.39844E-03   -0.43913E-04 21928   0.766E-02    0.113E-01
DAV:  12    -0.566492832913E+03    0.39638E-04   -0.20423E-04 21512   0.518E-02    0.894E-02
DAV:  13    -0.566492826856E+03    0.60569E-05   -0.10298E-04 21656   0.401E-02    0.767E-02
DAV:  14    -0.566492818196E+03    0.86604E-05   -0.55575E-05 21432   0.283E-02    0.375E-02
DAV:  15    -0.566492870733E+03   -0.52537E-04   -0.20982E-05 21184   0.171E-02    0.360E-02
DAV:  16    -0.566492954421E+03   -0.83688E-04   -0.12110E-05 20848   0.135E-02    0.305E-02
DAV:  17    -0.566493038513E+03   -0.84092E-04   -0.91981E-06 19608   0.123E-02    0.312E-02
DAV:  18    -0.566493088897E+03   -0.50383E-04   -0.88665E-06 17696   0.124E-02    0.338E-02
DAV:  19    -0.566493142989E+03   -0.54093E-04   -0.65744E-06 17000   0.102E-02    0.333E-02
DAV:  20    -0.566493142607E+03    0.38231E-06   -0.53603E-06 16600   0.898E-03
  17 F= -.61580304E+03 E0= -.61568648E+03  d E =-.840416E-01  mag=    20.8917
       N       E                     dE             d eps       ncg     rms          rms(c)
DAV:   1    -0.562441288493E+03    0.40519E+01   -0.38840E+02 24820   0.461E+01    0.377E+00
DAV:   2    -0.567350376450E+03   -0.49091E+01   -0.43550E+01 21480   0.915E+00    0.916E+00
DAV:   3    -0.568168739795E+03   -0.81836E+00   -0.30208E+00 22670   0.547E+00    0.119E+01
DAV:   4    -0.566703852403E+03    0.14649E+01   -0.17528E+00 22007   0.346E+00    0.426E+00
DAV:   5    -0.566529090089E+03    0.17476E+00   -0.23235E-01 21570   0.169E+00    0.189E+00
DAV:   6    -0.566509437994E+03    0.19652E-01   -0.99655E-02 21461   0.100E+00    0.148E+00
DAV:   7    -0.566501786096E+03    0.76519E-02   -0.54469E-02 21576   0.766E-01    0.132E+00
DAV:   8    -0.566493616599E+03    0.81695E-02   -0.33922E-02 21392   0.720E-01    0.113E+00
DAV:   9    -0.566492672622E+03    0.94398E-03   -0.27683E-02 21608   0.645E-01    0.110E+00
DAV:  10    -0.566483097282E+03    0.95753E-02   -0.13042E-02 21477   0.454E-01    0.398E-01
DAV:  11    -0.566482748392E+03    0.34889E-03   -0.29584E-03 21565   0.198E-01    0.269E-01
DAV:  12    -0.566483427500E+03   -0.67911E-03   -0.14722E-03 21405   0.145E-01    0.257E-01
DAV:  13    -0.566483815534E+03   -0.38803E-03   -0.68274E-04 21488   0.104E-01    0.181E-01
DAV:  14    -0.566484360731E+03   -0.54520E-03   -0.33071E-04 21584   0.662E-02    0.115E-01
DAV:  15    -0.566484871437E+03   -0.51071E-03   -0.15663E-04 21688   0.467E-02    0.746E-02
DAV:  16    -0.566485752771E+03   -0.88133E-03   -0.76262E-05 21560   0.317E-02    0.675E-02
DAV:  17    -0.566486339244E+03   -0.58647E-03   -0.54195E-05 21760   0.293E-02    0.732E-02
DAV:  18    -0.566486878766E+03   -0.53952E-03   -0.40039E-05 21360   0.259E-02    0.562E-02
DAV:  19    -0.566487573828E+03   -0.69506E-03   -0.38359E-05 21240   0.206E-02    0.568E-02
DAV:  20    -0.566487958913E+03   -0.38509E-03   -0.29229E-05 21496   0.213E-02    0.665E-02
DAV:  21    -0.566488461020E+03   -0.50211E-03   -0.31630E-05 20992   0.209E-02    0.664E-02
DAV:  22    -0.566489037529E+03   -0.57651E-03   -0.55262E-05 21032   0.271E-02    0.757E-02
DAV:  23    -0.566489667076E+03   -0.62955E-03   -0.81359E-05 21096   0.290E-02    0.483E-02
DAV:  24    -0.566490042842E+03   -0.37577E-03   -0.52343E-05 21256   0.228E-02    0.318E-02
DAV:  25    -0.566490510575E+03   -0.46773E-03   -0.23054E-05 19464   0.146E-02    0.281E-02
DAV:  26    -0.566490895447E+03   -0.38487E-03   -0.85763E-06 18664   0.108E-02    0.178E-02
DAV:  27    -0.566491455484E+03   -0.56004E-03   -0.45130E-06 16808   0.725E-03    0.142E-02
DAV:  28    -0.566492036034E+03   -0.58055E-03   -0.28105E-06 14936   0.611E-03    0.120E-02
DAV:  29    -0.566492588499E+03   -0.55247E-03   -0.16131E-06 14256   0.438E-03    0.107E-02
DAV:  30    -0.566493250815E+03   -0.66232E-03   -0.15121E-06 14562   0.371E-03    0.800E-03
DAV:  31    -0.566493921076E+03   -0.67026E-03   -0.17031E-06 15016   0.380E-03    0.668E-03
DAV:  32    -0.566494584936E+03   -0.66386E-03   -0.17058E-06 15200   0.373E-03    0.685E-03
DAV:  33    -0.566495060636E+03   -0.47570E-03   -0.15364E-06 14992   0.341E-03    0.516E-03
DAV:  34    -0.566495327463E+03   -0.26683E-03   -0.61146E-07 13616   0.240E-03    0.430E-03
DAV:  35    -0.566495493068E+03   -0.16560E-03   -0.26932E-07 13256   0.174E-03    0.330E-03
DAV:  36    -0.566495652491E+03   -0.15942E-03   -0.30513E-07 13480   0.156E-03    0.306E-03
DAV:  37    -0.566495805455E+03   -0.15296E-03   -0.40136E-07 13856   0.149E-03    0.237E-03
DAV:  38    -0.566495915737E+03   -0.11028E-03   -0.31258E-07 13608   0.126E-03    0.210E-03
DAV:  39    -0.566496034905E+03   -0.11917E-03   -0.44173E-07 13856   0.107E-03    0.162E-03
DAV:  40    -0.566496141337E+03   -0.10643E-03   -0.48807E-07 14016   0.941E-04    0.195E-03
DAV:  41    -0.566496221471E+03   -0.80135E-04   -0.41188E-07 13880   0.888E-04    0.148E-03
DAV:  42    -0.566496274820E+03   -0.53348E-04   -0.34182E-07 13704   0.753E-04    0.917E-04
DAV:  43    -0.566496288338E+03   -0.13518E-04   -0.77734E-08 13312   0.478E-04    0.725E-04
DAV:  44    -0.566496292684E+03   -0.43456E-05   -0.32560E-08 12960   0.301E-04    0.628E-04
DAV:  45    -0.566496294763E+03   -0.20789E-05   -0.17269E-08 12832   0.221E-04    0.583E-04
DAV:  46    -0.566496295766E+03   -0.10037E-05   -0.12421E-08 12856   0.152E-04    0.549E-04
DAV:  47    -0.566496295811E+03   -0.44703E-07   -0.31660E-09 13064   0.899E-05
  18 F= -.61587954E+03 E0= -.61576299E+03  d E =-.160534E+00  mag=    20.1277
       N       E                     dE             d eps       ncg     rms          rms(c)
DAV:   1    -0.565931743114E+03    0.56455E+00   -0.62866E+01 24900   0.185E+01    0.151E+00
DAV:   2    -0.566674207615E+03   -0.74246E+00   -0.68980E+00 21336   0.359E+00    0.307E+00
DAV:   3    -0.566888176834E+03   -0.21397E+00   -0.74805E-01 22237   0.223E+00    0.529E+00
DAV:   4    -0.566582003367E+03    0.30617E+00   -0.33500E-01 21870   0.148E+00    0.105E+00
DAV:   5    -0.566574245583E+03    0.77578E-02   -0.20206E-02 21520   0.487E-01    0.497E-01
DAV:   6    -0.566575043346E+03   -0.79776E-03   -0.10784E-02 21618   0.327E-01    0.511E-01
DAV:   7    -0.566572915101E+03    0.21282E-02   -0.72824E-03 21352   0.310E-01    0.329E-01
DAV:   8    -0.566572386406E+03    0.52870E-03   -0.26329E-03 21349   0.184E-01    0.210E-01
DAV:   9    -0.566572205864E+03    0.18054E-03   -0.15017E-03 21730   0.131E-01    0.209E-01
DAV:  10    -0.566571749769E+03    0.45609E-03   -0.40739E-04 21293   0.762E-02    0.115E-01
DAV:  11    -0.566571650045E+03    0.99725E-04   -0.14851E-04 21754   0.461E-02    0.110E-01
DAV:  12    -0.566571550457E+03    0.99587E-04   -0.10432E-04 21816   0.399E-02    0.711E-02
DAV:  13    -0.566571464699E+03    0.85758E-04   -0.49682E-05 21480   0.266E-02    0.379E-02
DAV:  14    -0.566571416664E+03    0.48036E-04   -0.20747E-05 21128   0.150E-02    0.289E-02
DAV:  15    -0.566571407497E+03    0.91665E-05   -0.11990E-05 19960   0.136E-02    0.384E-02
DAV:  16    -0.566571377479E+03    0.30018E-04   -0.94826E-06 17312   0.128E-02    0.269E-02
DAV:  17    -0.566571359283E+03    0.18196E-04   -0.70795E-06 17744   0.105E-02    0.262E-02
DAV:  18    -0.566571325222E+03    0.34061E-04   -0.71949E-06 16512   0.110E-02    0.326E-02
DAV:  19    -0.566571283308E+03    0.41913E-04   -0.49913E-06 16216   0.976E-03    0.335E-02
DAV:  20    -0.566571218287E+03    0.65021E-04   -0.82870E-06 16464   0.125E-02    0.381E-02
DAV:  21    -0.566570787437E+03    0.43085E-03   -0.13551E-05 18552   0.143E-02    0.198E-02
DAV:  22    -0.566570424348E+03    0.36309E-03   -0.10344E-05 19056   0.113E-02    0.196E-02
DAV:  23    -0.566570314491E+03    0.10986E-03   -0.39779E-06 17920   0.676E-03    0.155E-02
DAV:  24    -0.566570326490E+03   -0.11999E-04   -0.22422E-06 13608   0.594E-03    0.120E-02
DAV:  25    -0.566570397099E+03   -0.70609E-04   -0.19233E-06 13893   0.490E-03    0.843E-03
DAV:  26    -0.566570514878E+03   -0.11778E-03   -0.15551E-06 14008   0.423E-03    0.674E-03
DAV:  27    -0.566570697334E+03   -0.18246E-03   -0.13371E-06 14277   0.327E-03    0.576E-03
DAV:  28    -0.566570894900E+03   -0.19757E-03   -0.87904E-07 14136   0.223E-03    0.558E-03
DAV:  29    -0.566571250013E+03   -0.35511E-03   -0.18476E-06 14696   0.235E-03    0.386E-03
DAV:  30    -0.566571529805E+03   -0.27979E-03   -0.11804E-06 14432   0.217E-03    0.391E-03
DAV:  31    -0.566571834974E+03   -0.30517E-03   -0.12581E-06 14469   0.210E-03    0.412E-03
DAV:  32    -0.566572133643E+03   -0.29867E-03   -0.12239E-06 14576   0.186E-03    0.294E-03
DAV:  33    -0.566572325005E+03   -0.19136E-03   -0.57283E-07 14016   0.153E-03    0.194E-03
DAV:  34    -0.566572494990E+03   -0.16999E-03   -0.38158E-07 13856   0.115E-03    0.168E-03
DAV:  35    -0.566572619682E+03   -0.12469E-03   -0.20335E-07 13592   0.872E-04    0.128E-03
DAV:  36    -0.566572693432E+03   -0.73749E-04   -0.11353E-07 13272   0.726E-04    0.110E-03
DAV:  37    -0.566572753328E+03   -0.59896E-04   -0.10365E-07 13288   0.610E-04    0.901E-04
DAV:  38    -0.566572790363E+03   -0.37035E-04   -0.69480E-08 13264   0.453E-04    0.745E-04
DAV:  39    -0.566572816868E+03   -0.26505E-04   -0.61366E-08 13104   0.277E-04    0.602E-04
DAV:  40    -0.566572822883E+03   -0.60154E-05   -0.18435E-08 13224   0.223E-04    0.558E-04
DAV:  41    -0.566572826416E+03   -0.35332E-05   -0.13265E-08 12720   0.166E-04    0.539E-04
DAV:  42    -0.566572827099E+03   -0.68219E-06   -0.42440E-09 13160   0.115E-04
  19 F= -.61597739E+03 E0= -.61586076E+03  d E =-.978499E-01  mag=    19.8310
       N       E                     dE             d eps       ncg     rms          rms(c)
DAV:   1    -0.560276104317E+03    0.62967E+01   -0.56176E+02 25052   0.555E+01    0.475E+00
DAV:   2    -0.568686214781E+03   -0.84101E+01   -0.69200E+01 21608   0.115E+01    0.130E+01
DAV:   3    -0.568638594937E+03    0.47620E-01   -0.48501E+00 22464   0.707E+00    0.126E+01
DAV:   4    -0.566865925022E+03    0.17727E+01   -0.15245E+00 21675   0.360E+00    0.396E+00
DAV:   5    -0.566755530742E+03    0.11039E+00   -0.27327E-01 21544   0.178E+00    0.233E+00
DAV:   6    -0.566740072445E+03    0.15458E-01   -0.19598E-01 21573   0.125E+00    0.214E+00
DAV:   7    -0.566713558269E+03    0.26514E-01   -0.89318E-02 21485   0.103E+00    0.160E+00
DAV:   8    -0.566695141904E+03    0.18416E-01   -0.50716E-02 21392   0.778E-01    0.101E+00
DAV:   9    -0.566690463249E+03    0.46787E-02   -0.21979E-02 21338   0.545E-01    0.616E-01
DAV:  10    -0.566690043838E+03    0.41941E-03   -0.88043E-03 21432   0.346E-01    0.388E-01
DAV:  11    -0.566692544753E+03   -0.25009E-02   -0.34060E-03 21480   0.226E-01    0.483E-01
DAV:  12    -0.566692040183E+03    0.50457E-03   -0.19546E-03 21456   0.172E-01    0.255E-01
DAV:  13    -0.566693027781E+03   -0.98760E-03   -0.60530E-04 21608   0.906E-02    0.152E-01
DAV:  14    -0.566694040110E+03   -0.10123E-02   -0.31496E-04 21720   0.600E-02    0.811E-02
DAV:  15    -0.566694729084E+03   -0.68897E-03   -0.15228E-04 21664   0.450E-02    0.992E-02
DAV:  16    -0.566695153760E+03   -0.42468E-03   -0.90922E-05 21648   0.371E-02    0.765E-02
DAV:  17    -0.566695795325E+03   -0.64156E-03   -0.53381E-05 21392   0.296E-02    0.734E-02
DAV:  18    -0.566696477111E+03   -0.68179E-03   -0.52545E-05 21600   0.294E-02    0.588E-02
DAV:  19    -0.566696971946E+03   -0.49483E-03   -0.37525E-05 21584   0.245E-02    0.670E-02
DAV:  20    -0.566697317665E+03   -0.34572E-03   -0.23662E-05 20928   0.178E-02    0.736E-02
DAV:  21    -0.566697492691E+03   -0.17503E-03   -0.27728E-05 20912   0.216E-02    0.704E-02
DAV:  22    -0.566697734525E+03   -0.24183E-03   -0.50039E-05 21352   0.241E-02    0.524E-02
DAV:  23    -0.566697803140E+03   -0.68615E-04   -0.65516E-05 21224   0.241E-02    0.451E-02
DAV:  24    -0.566697820569E+03   -0.17429E-04   -0.41131E-05 21408   0.233E-02    0.414E-02
DAV:  25    -0.566698027488E+03   -0.20692E-03   -0.21856E-05 19280   0.167E-02    0.296E-02
DAV:  26    -0.566698350006E+03   -0.32252E-03   -0.12729E-05 18920   0.129E-02    0.279E-02
DAV:  27    -0.566698962779E+03   -0.61277E-03   -0.87281E-06 17768   0.106E-02    0.179E-02
DAV:  28    -0.566699531739E+03   -0.56896E-03   -0.36682E-06 16784   0.641E-03    0.153E-02
DAV:  29    -0.566700356846E+03   -0.82511E-03   -0.35485E-06 16341   0.557E-03    0.148E-02
DAV:  30    -0.566700938117E+03   -0.58127E-03   -0.25770E-06 15389   0.541E-03    0.107E-02
DAV:  31    -0.566701613297E+03   -0.67518E-03   -0.28902E-06 16512   0.446E-03    0.927E-03
DAV:  32    -0.566702468612E+03   -0.85531E-03   -0.58051E-06 17685   0.455E-03    0.670E-03
DAV:  33    -0.566702822087E+03   -0.35347E-03   -0.17175E-06 14824   0.407E-03    0.658E-03
DAV:  34    -0.566703049071E+03   -0.22698E-03   -0.66351E-07 13304   0.337E-03    0.557E-03
DAV:  35    -0.566703300815E+03   -0.25174E-03   -0.61362E-07 13784   0.274E-03    0.492E-03
DAV:  36    -0.566703576582E+03   -0.27577E-03   -0.76030E-07 14008   0.246E-03    0.375E-03
DAV:  37    -0.566703977216E+03   -0.40063E-03   -0.17321E-06 15216   0.209E-03    0.316E-03
DAV:  38    -0.566704223661E+03   -0.24644E-03   -0.10070E-06 14344   0.189E-03    0.280E-03
DAV:  39    -0.566704473417E+03   -0.24976E-03   -0.15379E-06 14936   0.158E-03    0.239E-03
DAV:  40    -0.566704577397E+03   -0.10398E-03   -0.49363E-07 14152   0.135E-03    0.202E-03
DAV:  41    -0.566704698894E+03   -0.12150E-03   -0.10217E-06 14448   0.122E-03    0.147E-03
DAV:  42    -0.566704724983E+03   -0.26088E-04   -0.15811E-07 13624   0.781E-04    0.805E-04
DAV:  43    -0.566704737756E+03   -0.12774E-04   -0.85839E-08 13016   0.417E-04    0.815E-04
DAV:  44    -0.566704742085E+03   -0.43290E-05   -0.33568E-08 13008   0.324E-04    0.683E-04
DAV:  45    -0.566704743573E+03   -0.14873E-05   -0.16148E-08 12968   0.199E-04    0.697E-04
DAV:  46    -0.566704744186E+03   -0.61304E-06   -0.77485E-09 12712   0.162E-04
  20 F= -.61616809E+03 E0= -.61605132E+03  d E =-.288550E+00  mag=    19.0003
       N       E                     dE             d eps       ncg     rms          rms(c)
DAV:   1    -0.533697340422E+03    0.33007E+02   -0.22063E+03 25292   0.112E+02    0.109E+01
DAV:   2    -0.586718675433E+03   -0.53021E+02   -0.34666E+02 21689   0.269E+01    0.377E+01
DAV:   3    -0.573094203219E+03    0.13624E+02   -0.20144E+01 22546   0.152E+01    0.214E+01
DAV:   4    -0.567221765889E+03    0.58724E+01   -0.48543E+00 22485   0.704E+00    0.818E+00
DAV:   5    -0.566737629624E+03    0.48414E+00   -0.17035E+00 21920   0.452E+00    0.565E+00
DAV:   6    -0.566662339258E+03    0.75290E-01   -0.10106E+00 21640   0.285E+00    0.495E+00
DAV:   7    -0.566447978280E+03    0.21436E+00   -0.32175E-01 21378   0.189E+00    0.273E+00
DAV:   8    -0.566409061427E+03    0.38917E-01   -0.24400E-01 21392   0.164E+00    0.214E+00
DAV:   9    -0.566394517496E+03    0.14544E-01   -0.13623E-01 21346   0.129E+00    0.157E+00
DAV:  10    -0.566405047162E+03   -0.10530E-01   -0.69739E-02 21304   0.979E-01    0.156E+00
DAV:  11    -0.566407877843E+03   -0.28307E-02   -0.36573E-02 21320   0.710E-01    0.111E+00
DAV:  12    -0.566418088836E+03   -0.10211E-01   -0.10979E-02 21368   0.401E-01    0.657E-01
DAV:  13    -0.566425942542E+03   -0.78537E-02   -0.45158E-03 21584   0.252E-01    0.434E-01
DAV:  14    -0.566433109184E+03   -0.71666E-02   -0.39403E-03 21504   0.228E-01    0.420E-01
DAV:  15    -0.566437687535E+03   -0.45784E-02   -0.21642E-03 21520   0.172E-01    0.204E-01
DAV:  16    -0.566440869884E+03   -0.31823E-02   -0.55110E-04 21749   0.832E-02    0.190E-01
DAV:  17    -0.566444127330E+03   -0.32574E-02   -0.29831E-04 21522   0.668E-02    0.136E-01
DAV:  18    -0.566449097654E+03   -0.49703E-02   -0.25753E-04 21517   0.568E-02    0.722E-02
DAV:  19    -0.566451975586E+03   -0.28779E-02   -0.11925E-04 21613   0.380E-02    0.796E-02
DAV:  20    -0.566453317259E+03   -0.13417E-02   -0.56213E-05 21392   0.276E-02    0.807E-02
DAV:  21    -0.566454421301E+03   -0.11040E-02   -0.32535E-05 21256   0.225E-02    0.722E-02
DAV:  22    -0.566455482992E+03   -0.10617E-02   -0.25396E-05 21248   0.189E-02    0.637E-02
DAV:  23    -0.566457057413E+03   -0.15744E-02   -0.28713E-05 19864   0.176E-02    0.571E-02
DAV:  24    -0.566459281032E+03   -0.22236E-02   -0.55016E-05 21128   0.206E-02    0.546E-02
DAV:  25    -0.566461130225E+03   -0.18492E-02   -0.74919E-05 20765   0.269E-02    0.669E-02
DAV:  26    -0.566462792899E+03   -0.16627E-02   -0.90598E-05 21008   0.246E-02    0.429E-02
DAV:  27    -0.566464144563E+03   -0.13517E-02   -0.58495E-05 20317   0.192E-02    0.359E-02
DAV:  28    -0.566465825075E+03   -0.16805E-02   -0.56682E-05 19309   0.180E-02    0.311E-02
DAV:  29    -0.566466840828E+03   -0.10158E-02   -0.22123E-05 19352   0.152E-02    0.244E-02
DAV:  30    -0.566468375108E+03   -0.15343E-02   -0.13475E-05 18656   0.119E-02    0.241E-02
DAV:  31    -0.566469684759E+03   -0.13097E-02   -0.78764E-06 18304   0.889E-03    0.234E-02
DAV:  32    -0.566471052039E+03   -0.13673E-02   -0.73535E-06 18016   0.622E-03    0.169E-02
DAV:  33    -0.566471685107E+03   -0.63307E-03   -0.49020E-06 16752   0.604E-03    0.127E-02
DAV:  34    -0.566472111669E+03   -0.42656E-03   -0.43086E-06 15744   0.604E-03    0.108E-02
DAV:  35    -0.566472050144E+03    0.61525E-04   -0.22054E-06 14472   0.503E-03    0.622E-03
DAV:  36    -0.566471884156E+03    0.16599E-03   -0.89726E-07 13832   0.230E-03    0.492E-03
DAV:  37    -0.566471892261E+03   -0.81051E-05   -0.40643E-07 13536   0.228E-03    0.440E-03
DAV:  38    -0.566471978048E+03   -0.85786E-04   -0.11107E-06 12850   0.338E-03    0.956E-03
DAV:  39    -0.566472065703E+03   -0.87655E-04   -0.46540E-07 13088   0.187E-03    0.799E-03
DAV:  40    -0.566472267831E+03   -0.20213E-03   -0.21520E-06 13760   0.435E-03    0.817E-03
DAV:  41    -0.566472377526E+03   -0.10969E-03   -0.94162E-07 13480   0.209E-03    0.124E-02
DAV:  42    -0.566472443121E+03   -0.65595E-04   -0.34280E-07 13152   0.137E-03    0.902E-03
DAV:  43    -0.566472550247E+03   -0.10713E-03   -0.63308E-07 13706   0.153E-03    0.660E-03
DAV:  44    -0.566472627108E+03   -0.76860E-04   -0.56310E-07 13704   0.147E-03    0.377E-03
DAV:  45    -0.566472648234E+03   -0.21126E-04   -0.14669E-07 13408   0.892E-04    0.236E-03
DAV:  46    -0.566472664917E+03   -0.16683E-04   -0.78199E-08 13064   0.536E-04    0.160E-03
DAV:  47    -0.566472672009E+03   -0.70923E-05   -0.38844E-08 12856   0.390E-04    0.141E-03
DAV:  48    -0.566472677345E+03   -0.53358E-05   -0.29008E-08 12952   0.368E-04    0.878E-04
DAV:  49    -0.566472679423E+03   -0.20778E-05   -0.12582E-08 12944   0.234E-04    0.802E-04
DAV:  50    -0.566472681104E+03   -0.16810E-05   -0.80090E-09 12888   0.161E-04    0.788E-04
DAV:  51    -0.566472682760E+03   -0.16557E-05   -0.81237E-09 12808   0.145E-04    0.772E-04
DAV:  52    -0.566472683622E+03   -0.86217E-06   -0.43659E-09 12597   0.132E-04
  21 F= -.61605999E+03 E0= -.61594298E+03  d E =-.180450E+00  mag=    17.6669
       N       E                     dE             d eps       ncg     rms          rms(c)
DAV:   1    -0.553772079386E+03    0.12701E+02   -0.10423E+03 25204   0.764E+01    0.640E+00
DAV:   2    -0.566969890424E+03   -0.13198E+02   -0.13747E+02 21328   0.149E+01    0.493E+00
DAV:   3    -0.574877988872E+03   -0.79081E+01   -0.59840E+00 23214   0.852E+00    0.245E+01
DAV:   4    -0.566824980215E+03    0.80530E+01   -0.34600E+00 22114   0.698E+00    0.350E+00
DAV:   5    -0.566789535322E+03    0.35445E-01   -0.51339E-01 22085   0.192E+00    0.302E+00
DAV:   6    -0.566786539726E+03    0.29956E-02   -0.24062E-01 21617   0.151E+00    0.277E+00
[...]
DAV:   8    -0.569116276235E+03    0.13613E-04   -0.31790E-04 21487   0.623E-02    0.767E-02
DAV:   9    -0.569116219713E+03    0.56522E-04   -0.10765E-04 21066   0.400E-02    0.353E-02
DAV:  10    -0.569116220578E+03   -0.86497E-06   -0.37166E-05 21424   0.237E-02    0.341E-02
DAV:  11    -0.569116214647E+03    0.59304E-05   -0.17466E-05 20373   0.168E-02    0.217E-02
DAV:  12    -0.569116211609E+03    0.30380E-05   -0.65640E-06 18144   0.960E-03    0.872E-03
DAV:  13    -0.569116212176E+03   -0.56694E-06   -0.30992E-06 15896   0.603E-03
  95 F= -.61866718E+03 E0= -.61855538E+03  d E =-.224311E-02  mag=    17.1343
       N       E                     dE             d eps       ncg     rms          rms(c)
DAV:   1    -0.569113583806E+03    0.26278E-02   -0.30352E-01 25425   0.130E+00    0.102E-01
DAV:   2    -0.569116693130E+03   -0.31093E-02   -0.31027E-02 21304   0.240E-01    0.134E-01
DAV:   3    -0.569118133186E+03   -0.14401E-02   -0.20756E-03 22432   0.143E-01    0.378E-01
DAV:   4    -0.569116633879E+03    0.14993E-02   -0.13587E-03 22582   0.117E-01    0.139E-01
DAV:   5    -0.569116533947E+03    0.99932E-04   -0.19112E-04 21400   0.521E-02    0.428E-02
DAV:   6    -0.569116562589E+03   -0.28642E-04   -0.78569E-05 21055   0.321E-02    0.553E-02
DAV:   7    -0.569116545977E+03    0.16612E-04   -0.55564E-05 20993   0.294E-02    0.389E-02
DAV:   8    -0.569116537879E+03    0.80983E-05   -0.28259E-05 20586   0.208E-02    0.253E-02
DAV:   9    -0.569116536881E+03    0.99838E-06   -0.11716E-05 19853   0.133E-02    0.178E-02
DAV:  10    -0.569116533911E+03    0.29698E-05   -0.47939E-06 14989   0.885E-03    0.799E-03
DAV:  11    -0.569116533937E+03   -0.25844E-07   -0.12796E-06 12600   0.430E-03
  96 F= -.61866729E+03 E0= -.61855548E+03  d E =-.234599E-02  mag=    17.1314
       N       E                     dE             d eps       ncg     rms          rms(c)
DAV:   1    -0.569088623805E+03    0.27910E-01   -0.32493E+00 25116   0.406E+00    0.331E-01
DAV:   2    -0.569118659215E+03   -0.30035E-01   -0.31237E-01 21129   0.743E-01    0.232E-01
DAV:   3    -0.569136565428E+03   -0.17906E-01   -0.18221E-02 22836   0.412E-01    0.127E+00
DAV:   4    -0.569118372974E+03    0.18192E-01   -0.14983E-02 22886   0.365E-01    0.198E-01
DAV:   5    -0.569118472039E+03   -0.99065E-04   -0.10118E-03 21529   0.106E-01    0.155E-01
DAV:   6    -0.569118760210E+03   -0.28817E-03   -0.89325E-04 21395   0.112E-01    0.226E-01
DAV:   7    -0.569118480247E+03    0.27996E-03   -0.77657E-04 21492   0.105E-01    0.136E-01
DAV:   8    -0.569118356640E+03    0.12361E-03   -0.30370E-04 21291   0.660E-02    0.674E-02
DAV:   9    -0.569118320978E+03    0.35662E-04   -0.10189E-04 21129   0.355E-02    0.294E-02
DAV:  10    -0.569118314330E+03    0.66475E-05   -0.31831E-05 21288   0.184E-02    0.184E-02
DAV:  11    -0.569118310307E+03    0.40228E-05   -0.75446E-06 20360   0.107E-02    0.138E-02
DAV:  12    -0.569118308770E+03    0.15367E-05   -0.40140E-06 14800   0.732E-03    0.121E-02
DAV:  13    -0.569118306101E+03    0.26696E-05   -0.20551E-06 12800   0.550E-03    0.652E-03
DAV:  14    -0.569118302872E+03    0.32287E-05   -0.11344E-06 12776   0.371E-03    0.499E-03
DAV:  15    -0.569118301905E+03    0.96695E-06   -0.55443E-07 13064   0.279E-03
  97 F= -.61866892E+03 E0= -.61855704E+03  d E =-.163494E-02  mag=    17.1268
       N       E                     dE             d eps       ncg     rms          rms(c)
DAV:   1    -0.569104026136E+03    0.14277E-01   -0.16289E+00 25116   0.287E+00    0.234E-01
DAV:   2    -0.569119020290E+03   -0.14994E-01   -0.15647E-01 21085   0.526E-01    0.149E-01
DAV:   3    -0.569124881600E+03   -0.58613E-02   -0.59536E-03 21817   0.243E-01    0.721E-01
DAV:   4    -0.569118992169E+03    0.58894E-02   -0.50618E-03 21993   0.221E-01    0.156E-01
DAV:   5    -0.569118994461E+03   -0.22920E-05   -0.49026E-04 21363   0.778E-02    0.116E-01
DAV:   6    -0.569119109851E+03   -0.11539E-03   -0.42564E-04 21443   0.804E-02    0.157E-01
DAV:   7    -0.569118987360E+03    0.12249E-03   -0.35313E-04 21535   0.738E-02    0.963E-02
DAV:   8    -0.569118915654E+03    0.71706E-04   -0.15053E-04 21125   0.469E-02    0.462E-02
DAV:   9    -0.569118900956E+03    0.14698E-04   -0.51378E-05 20880   0.256E-02    0.262E-02
DAV:  10    -0.569118902292E+03   -0.13364E-05   -0.25359E-05 20848   0.186E-02    0.325E-02
DAV:  11    -0.569118893082E+03    0.92103E-05   -0.11442E-05 19008   0.134E-02    0.118E-02
DAV:  12    -0.569118890671E+03    0.24110E-05   -0.22300E-06 13896   0.553E-03    0.630E-03
DAV:  13    -0.569118889447E+03    0.12238E-05   -0.12417E-06 13344   0.359E-03    0.447E-03
DAV:  14    -0.569118888496E+03    0.95065E-06   -0.60258E-07 12608   0.283E-03
  98 F= -.61866941E+03 E0= -.61855748E+03  d E =-.212739E-02  mag=    17.1222
       N       E                     dE             d eps       ncg     rms          rms(c)
DAV:   1    -0.569087521029E+03    0.31368E-01   -0.34999E+00 24980   0.400E+00    0.370E-01
DAV:   2    -0.569120981047E+03   -0.33460E-01   -0.34877E-01 21164   0.746E-01    0.261E-01
DAV:   3    -0.569146221847E+03   -0.25241E-01   -0.25879E-02 23179   0.475E-01    0.148E+00
DAV:   4    -0.569120554775E+03    0.25667E-01   -0.18802E-02 23444   0.415E-01    0.203E-01
DAV:   5    -0.569120808252E+03   -0.25348E-03   -0.11196E-03 21537   0.125E-01    0.182E-01
DAV:   6    -0.569120972736E+03   -0.16448E-03   -0.11489E-03 21305   0.111E-01    0.202E-01
DAV:   7    -0.569120590948E+03    0.38179E-03   -0.60180E-04 21112   0.923E-02    0.734E-02
DAV:   8    -0.569120638653E+03   -0.47705E-04   -0.22262E-04 21258   0.559E-02    0.102E-01
DAV:   9    -0.569120564899E+03    0.73754E-04   -0.12567E-04 21206   0.423E-02    0.370E-02
DAV:  10    -0.569120558564E+03    0.63344E-05   -0.31932E-05 20927   0.205E-02    0.227E-02
DAV:  11    -0.569120553052E+03    0.55125E-05   -0.10776E-05 20432   0.129E-02    0.151E-02
DAV:  12    -0.569120552958E+03    0.94296E-07   -0.50553E-06 15560   0.820E-03
  99 F= -.61867105E+03 E0= -.61855905E+03  d E =-.163340E-02  mag=    17.1182
       N       E                     dE             d eps       ncg     rms          rms(c)
DAV:   1    -0.569116883955E+03    0.36691E-02   -0.40918E-01 24994   0.137E+00    0.128E-01
DAV:   2    -0.569120865972E+03   -0.39820E-02   -0.40838E-02 21172   0.259E-01    0.121E-01
DAV:   3    -0.569124059272E+03   -0.31933E-02   -0.35614E-03 23590   0.184E-01    0.540E-01
DAV:   4    -0.569120749896E+03    0.33094E-02   -0.23985E-03 23878   0.151E-01    0.105E-01
DAV:   5    -0.569120779902E+03   -0.30007E-04   -0.20072E-04 21489   0.551E-02    0.800E-02
DAV:   6    -0.569120801978E+03   -0.22076E-04   -0.14701E-04 21575   0.477E-02    0.796E-02
DAV:   7    -0.569120782876E+03    0.19103E-04   -0.11170E-04 21324   0.426E-02    0.595E-02
DAV:   8    -0.569120755089E+03    0.27786E-04   -0.53712E-05 21356   0.297E-02    0.237E-02
DAV:   9    -0.569120756452E+03   -0.13621E-05   -0.17489E-05 20928   0.154E-02    0.225E-02
DAV:  10    -0.569120754652E+03    0.17995E-05   -0.90764E-06 17773   0.115E-02    0.139E-02
DAV:  11    -0.569120754499E+03    0.15297E-06   -0.29236E-06 13464   0.692E-03
 100 F= -.61867124E+03 E0= -.61855921E+03  d E =-.182412E-02  mag=    17.1156
       N       E                     dE             d eps       ncg     rms          rms(c)
DAV:   1    -0.569093966479E+03    0.26788E-01   -0.29530E+00 24900   0.364E+00    0.340E-01
DAV:   2    -0.569122042621E+03   -0.28076E-01   -0.29103E-01 21279   0.681E-01    0.264E-01
DAV:   3    -0.569146718988E+03   -0.24676E-01   -0.26218E-02 24000   0.474E-01    0.147E+00
DAV:   4    -0.569121495740E+03    0.25223E-01   -0.17828E-02 24276   0.403E-01    0.186E-01
DAV:   5    -0.569121767752E+03   -0.27201E-03   -0.10041E-03 21630   0.114E-01    0.175E-01
DAV:   6    -0.569121833148E+03   -0.65397E-04   -0.94364E-04 21318   0.101E-01    0.169E-01
DAV:   7    -0.569121617251E+03    0.21590E-03   -0.49407E-04 21241   0.880E-02    0.101E-01
DAV:   8    -0.569121601194E+03    0.16057E-04   -0.24604E-04 21374   0.584E-02    0.838E-02
DAV:   9    -0.569121557228E+03    0.43966E-04   -0.88636E-05 21263   0.357E-02    0.325E-02
DAV:  10    -0.569121551122E+03    0.61062E-05   -0.26260E-05 21658   0.185E-02    0.215E-02
DAV:  11    -0.569121550794E+03    0.32829E-06   -0.95732E-06 18880   0.127E-02
 101 F= -.61867273E+03 E0= -.61856066E+03  d E =-.148829E-02  mag=    17.1133
       N       E                     dE             d eps       ncg     rms          rms(c)
DAV:   1    -0.569097985386E+03    0.23566E-01   -0.25429E+00 24900   0.338E+00    0.318E-01
DAV:   2    -0.569122206190E+03   -0.24221E-01   -0.25082E-01 21209   0.633E-01    0.255E-01
DAV:   3    -0.569143337789E+03   -0.21132E-01   -0.22551E-02 23932   0.446E-01    0.137E+00
DAV:   4    -0.569121793057E+03    0.21545E-01   -0.15710E-02 24249   0.380E-01    0.214E-01
DAV:   5    -0.569121992357E+03   -0.19930E-03   -0.10883E-03 21662   0.124E-01    0.206E-01
DAV:   6    -0.569122128001E+03   -0.13564E-03   -0.89620E-04 21594   0.120E-01    0.199E-01
DAV:   7    -0.569121918611E+03    0.20939E-03   -0.65219E-04 21221   0.103E-01    0.136E-01
DAV:   8    -0.569121748941E+03    0.16967E-03   -0.28358E-04 21190   0.617E-02    0.437E-02
DAV:   9    -0.569121767182E+03   -0.18241E-04   -0.82344E-05 21218   0.318E-02    0.530E-02
DAV:  10    -0.569121750706E+03    0.16476E-04   -0.44851E-05 21091   0.259E-02    0.312E-02
DAV:  11    -0.569121744028E+03    0.66778E-05   -0.14003E-05 20522   0.143E-02    0.138E-02
DAV:  12    -0.569121743301E+03    0.72713E-06   -0.41485E-06 16688   0.763E-03
 102 F= -.61867356E+03 E0= -.61856146E+03  d E =-.232301E-02  mag=    17.1117
       N       E                     dE             d eps       ncg     rms          rms(c)
DAV:   1    -0.569025369401E+03    0.96375E-01   -0.10169E+01 24908   0.676E+00    0.632E-01
DAV:   2    -0.569122274076E+03   -0.96905E-01   -0.10045E+00 21303   0.126E+00    0.489E-01
DAV:   3    -0.569207174102E+03   -0.84900E-01   -0.95035E-02 24270   0.880E-01    0.272E+00
DAV:   4    -0.569120740054E+03    0.86434E-01   -0.64163E-02 24484   0.753E-01    0.333E-01
DAV:   5    -0.569121455387E+03   -0.71533E-03   -0.34871E-03 21629   0.210E-01    0.333E-01
DAV:   6    -0.569121559784E+03   -0.10440E-03   -0.33656E-03 21195   0.193E-01    0.319E-01
DAV:   7    -0.569120882370E+03    0.67741E-03   -0.18575E-03 21182   0.170E-01    0.212E-01
DAV:   8    -0.569120702519E+03    0.17985E-03   -0.97771E-04 21318   0.110E-01    0.145E-01
DAV:   9    -0.569120577813E+03    0.12471E-03   -0.31122E-04 21262   0.638E-02    0.629E-02
DAV:  10    -0.569120550906E+03    0.26908E-04   -0.92892E-05 21620   0.354E-02    0.403E-02
DAV:  11    -0.569120544618E+03    0.62874E-05   -0.35803E-05 21437   0.243E-02    0.351E-02
DAV:  12    -0.569120538694E+03    0.59244E-05   -0.20201E-05 20578   0.167E-02    0.209E-02
DAV:  13    -0.569120536686E+03    0.20079E-05   -0.85008E-06 18904   0.113E-02    0.153E-02
DAV:  14    -0.569120535361E+03    0.13250E-05   -0.40915E-06 15792   0.804E-03    0.102E-02
DAV:  15    -0.569120534882E+03    0.47870E-06   -0.15776E-06 13288   0.475E-03
 103 F= -.61867364E+03 E0= -.61856146E+03  d E =-.239864E-02  mag=    17.1103
       N       E                     dE             d eps       ncg     rms          rms(c)
DAV:   1    -0.569095871978E+03    0.24663E-01   -0.27423E+00 24908   0.351E+00    0.327E-01
DAV:   2    -0.569121578663E+03   -0.25707E-01   -0.26986E-01 21250   0.652E-01    0.197E-01
DAV:   3    -0.569132134218E+03   -0.10556E-01   -0.10703E-02 21582   0.312E-01    0.952E-01
DAV:   4    -0.569121540593E+03    0.10594E-01   -0.86751E-03 21726   0.284E-01    0.191E-01
DAV:   5    -0.569121717728E+03   -0.17713E-03   -0.83504E-04 21363   0.109E-01    0.181E-01
DAV:   6    -0.569121865526E+03   -0.14780E-03   -0.93433E-04 21341   0.115E-01    0.216E-01
DAV:   7    -0.569121642733E+03    0.22279E-03   -0.68398E-04 21513   0.109E-01    0.149E-01
DAV:   8    -0.569121463250E+03    0.17948E-03   -0.30071E-04 21196   0.648E-02    0.481E-02
DAV:   9    -0.569121461038E+03    0.22114E-05   -0.70459E-05 21756   0.278E-02    0.286E-02
DAV:  10    -0.569121461385E+03   -0.34668E-06   -0.27301E-05 21063   0.198E-02    0.316E-02
DAV:  11    -0.569121455581E+03    0.58042E-05   -0.13466E-05 18663   0.148E-02    0.177E-02
DAV:  12    -0.569121454046E+03    0.15351E-05   -0.44877E-06 15968   0.813E-03    0.790E-03
DAV:  13    -0.569121454644E+03   -0.59814E-06   -0.19866E-06 13936   0.507E-03
 104 F= -.61867389E+03 E0= -.61856175E+03  d E =-.265160E-02  mag=    17.1106
       N       E                     dE             d eps       ncg     rms          rms(c)
DAV:   1    -0.569102590475E+03    0.18864E-01   -0.21210E+00 24756   0.298E+00    0.278E-01
DAV:   2    -0.569121659431E+03   -0.19069E-01   -0.20019E-01 21362   0.559E-01    0.165E-01
DAV:   3    -0.569128170766E+03   -0.65113E-02   -0.69685E-03 21453   0.249E-01    0.762E-01
DAV:   4    -0.569121623677E+03    0.65471E-02   -0.59041E-03 21758   0.235E-01    0.161E-01
DAV:   5    -0.569121805749E+03   -0.18207E-03   -0.72935E-04 21209   0.979E-02    0.180E-01
DAV:   6    -0.569121892685E+03   -0.86936E-04   -0.79170E-04 21542   0.105E-01    0.199E-01
DAV:   7    -0.569121606156E+03    0.28653E-03   -0.50653E-04 21499   0.865E-02    0.829E-02
DAV:   8    -0.569121574652E+03    0.31504E-04   -0.16070E-04 21253   0.469E-02    0.478E-02
DAV:   9    -0.569121561144E+03    0.13507E-04   -0.53425E-05 21401   0.242E-02    0.224E-02
DAV:  10    -0.569121565526E+03   -0.43814E-05   -0.20466E-05 20688   0.168E-02    0.294E-02
DAV:  11    -0.569121559524E+03    0.60014E-05   -0.98360E-06 17002   0.124E-02    0.133E-02
DAV:  12    -0.569121558575E+03    0.94925E-06   -0.29127E-06 15096   0.642E-03
 105 F= -.61867517E+03 E0= -.61856299E+03  d E =-.128105E-02  mag=    17.1113
       N       E                     dE             d eps       ncg     rms          rms(c)
DAV:   1    -0.569095640683E+03    0.25919E-01   -0.28404E+00 24764   0.345E+00    0.323E-01
DAV:   2    -0.569121355552E+03   -0.25715E-01   -0.26860E-01 21357   0.649E-01    0.223E-01
DAV:   3    -0.569139612122E+03   -0.18257E-01   -0.18417E-02 23419   0.403E-01    0.128E+00
DAV:   4    -0.569121019732E+03    0.18592E-01   -0.14531E-02 23478   0.365E-01    0.176E-01
DAV:   5    -0.569121398583E+03   -0.37885E-03   -0.10848E-03 21304   0.117E-01    0.214E-01
DAV:   6    -0.569121474582E+03   -0.75999E-04   -0.95817E-04 21519   0.122E-01    0.219E-01
DAV:   7    -0.569121164714E+03    0.30987E-03   -0.62819E-04 21483   0.102E-01    0.112E-01
DAV:   8    -0.569121087635E+03    0.77080E-04   -0.23356E-04 21363   0.601E-02    0.546E-02
DAV:   9    -0.569121086029E+03    0.16058E-05   -0.81797E-05 21376   0.317E-02    0.459E-02
DAV:  10    -0.569121078737E+03    0.72916E-05   -0.43303E-05 21061   0.246E-02    0.337E-02
DAV:  11    -0.569121070747E+03    0.79905E-05   -0.14297E-05 20429   0.149E-02    0.151E-02
DAV:  12    -0.569121069825E+03    0.92201E-06   -0.50717E-06 17112   0.823E-03
 106 F= -.61867604E+03 E0= -.61856380E+03  d E =-.215366E-02  mag=    17.1124
       N       E                     dE             d eps       ncg     rms          rms(c)
DAV:   1    -0.569016472863E+03    0.10460E+00   -0.11358E+01 24756   0.690E+00    0.646E-01
DAV:   2    -0.569119921405E+03   -0.10345E+00   -0.10770E+00 21298   0.130E+00    0.468E-01
DAV:   3    -0.569203022850E+03   -0.83101E-01   -0.91524E-02 24118   0.857E-01    0.271E+00
DAV:   4    -0.569118368070E+03    0.84655E-01   -0.65587E-02 24270   0.764E-01    0.297E-01
DAV:   5    -0.569119729416E+03   -0.13613E-02   -0.41564E-03 21384   0.217E-01    0.397E-01
DAV:   6    -0.569120014998E+03   -0.28558E-03   -0.38141E-03 21521   0.235E-01    0.427E-01
DAV:   7    -0.569118817527E+03    0.11975E-02   -0.26449E-03 21526   0.195E-01    0.219E-01
DAV:   8    -0.569118539349E+03    0.27818E-03   -0.92845E-04 21393   0.112E-01    0.117E-01
DAV:   9    -0.569118454179E+03    0.85171E-04   -0.28764E-04 21500   0.560E-02    0.550E-02
DAV:  10    -0.569118457758E+03   -0.35793E-05   -0.97719E-05 21501   0.369E-02    0.595E-02
DAV:  11    -0.569118437400E+03    0.20358E-04   -0.48663E-05 21098   0.275E-02    0.341E-02
DAV:  12    -0.569118432970E+03    0.44305E-05   -0.20502E-05 20704   0.169E-02    0.184E-02
DAV:  13    -0.569118437927E+03   -0.49577E-05   -0.10263E-05 20165   0.126E-02    0.217E-02
DAV:  14    -0.569118436387E+03    0.15409E-05   -0.54109E-06 16464   0.970E-03    0.104E-02
DAV:  15    -0.569118438079E+03   -0.16922E-05   -0.20878E-06 12904   0.522E-03    0.915E-03
DAV:  16    -0.569118439800E+03   -0.17213E-05   -0.10452E-06 12832   0.391E-03    0.510E-03
DAV:  17    -0.569118441497E+03   -0.16971E-05   -0.40049E-07 12832   0.245E-03    0.224E-03
DAV:  18    -0.569118443040E+03   -0.15430E-05   -0.15249E-07 12744   0.129E-03    0.197E-03
DAV:  19    -0.569118444224E+03   -0.11839E-05   -0.73988E-08 12776   0.935E-04    0.171E-03
DAV:  20    -0.569118445252E+03   -0.10277E-05   -0.43230E-08 12720   0.737E-04    0.171E-03
DAV:  21    -0.569118445788E+03   -0.53621E-06   -0.33489E-08 12808   0.687E-04
 107 F= -.61867614E+03 E0= -.61856378E+03  d E =-.225095E-02  mag=    17.1158
       N       E                     dE             d eps       ncg     rms          rms(c)
DAV:   1    -0.569096997427E+03    0.21448E-01   -0.25688E+00 24756   0.328E+00    0.306E-01
DAV:   2    -0.569120080121E+03   -0.23083E-01   -0.24264E-01 21087   0.614E-01    0.176E-01
DAV:   3    -0.569126067145E+03   -0.59870E-02   -0.66753E-03 21516   0.238E-01    0.737E-01
DAV:   4    -0.569120084684E+03    0.59825E-02   -0.55630E-03 21739   0.228E-01    0.165E-01
DAV:   5    -0.569120176488E+03   -0.91804E-04   -0.71834E-04 21187   0.934E-02    0.151E-01
DAV:   6    -0.569120252230E+03   -0.75742E-04   -0.59198E-04 21329   0.939E-02    0.178E-01
DAV:   7    -0.569120011707E+03    0.24052E-03   -0.43462E-04 21258   0.799E-02    0.780E-02
DAV:   8    -0.569120014864E+03   -0.31567E-05   -0.13196E-04 21484   0.433E-02    0.594E-02
DAV:   9    -0.569119981371E+03    0.33493E-04   -0.67203E-05 21553   0.276E-02    0.226E-02
DAV:  10    -0.569119982235E+03   -0.86403E-06   -0.15016E-05 20322   0.139E-02    0.177E-02
DAV:  11    -0.569119980655E+03    0.15795E-05   -0.57826E-06 16720   0.979E-03    0.143E-02
DAV:  12    -0.569119979646E+03    0.10091E-05   -0.30674E-06 13434   0.679E-03    0.816E-03
DAV:  13    -0.569119979517E+03    0.12899E-06   -0.15531E-06 12386   0.415E-03
 108 F= -.61867638E+03 E0= -.61856408E+03  d E =-.249078E-02  mag=    17.1173
       N       E                     dE             d eps       ncg     rms          rms(c)
DAV:   1    -0.569101824577E+03    0.18155E-01   -0.21078E+00 24724   0.297E+00    0.286E-01
DAV:   2    -0.569120909536E+03   -0.19085E-01   -0.20055E-01 21333   0.560E-01    0.178E-01
DAV:   3    -0.569123513896E+03   -0.26044E-02   -0.42883E-03 21235   0.194E-01    0.510E-01
DAV:   4    -0.569121838926E+03    0.16750E-02   -0.45432E-03 22228   0.204E-01    0.313E-01
DAV:   5    -0.569120849094E+03    0.98983E-03   -0.11848E-03 21603   0.120E-01    0.113E-01
DAV:   6    -0.569121153655E+03   -0.30456E-03   -0.62847E-04 21128   0.889E-02    0.184E-01
DAV:   7    -0.569120793114E+03    0.36054E-03   -0.42257E-04 21047   0.794E-02    0.648E-02
DAV:   8    -0.569120807734E+03   -0.14620E-04   -0.15955E-04 21332   0.436E-02    0.653E-02
DAV:   9    -0.569120782430E+03    0.25304E-04   -0.64721E-05 20862   0.295E-02    0.307E-02
DAV:  10    -0.569120775693E+03    0.67374E-05   -0.15058E-05 20303   0.150E-02    0.150E-02
DAV:  11    -0.569120774076E+03    0.16163E-05   -0.48205E-06 17152   0.839E-03    0.128E-02
DAV:  12    -0.569120773891E+03    0.18580E-06   -0.32841E-06 12581   0.712E-03
 109 F= -.61867755E+03 E0= -.61856522E+03  d E =-.116862E-02  mag=    17.1184
