85
Lattice="11.004690437655821 0.0 0.0 0.0 11.004690437655821 0.0 0.0 0.0 27.781491233325184" Properties=species:S:1:pos:R:3:move_mask:L:1:momenta:R:3 adsorbate_info="_JSON {\"site\": {\"coordinates\": [2.7511726094139553, 0.0, 9.281491233325172], \"connectivity\": 1, \"topology\": [33], \"n_vector\": [-0.00043557994126901945, -0.0008711598825314403, 0.9999995256751744], \"h_vector\": [1.0, 0.0, 0.0], \"site_formula\": {\"Pd\": 1}}, \"smiles\": \"ClOC\", \"mdf\": 1.7097869690905094, \"adsorbate_formula\": \"CH3O\"}" mace_E=-415.8302356218819 converged=T n_steps=88 d_min=2.108985229330694 site_type=unknown dE_rel_meV=0 original_idx=86 rank=168 E_MACE=-415.83778573133526 pbc="T T T"
Pd       0.00000000       0.00000000       1.50000000  F       0.00000000       0.00000000       0.00000000
Pd       4.11939503       6.88184887       7.41796113  T       0.00000000       0.00000000       0.00000000
Pd       1.36791081       6.89287504       7.41251499  T       0.00000000       0.00000000       0.00000000
Pd       9.61273009       4.13992649       7.41204418  T       0.00000000       0.00000000       0.00000000
Pd       6.86876512       4.12257401       7.41529623  T       0.00000000       0.00000000       0.00000000
Pd       4.11721509       4.11737084       7.41458819  T       0.00000000       0.00000000       0.00000000
Pd       1.36716394       4.14085308       7.40441617  T       0.00000000       0.00000000       0.00000000
Pd       9.61324954       1.38050057       7.42637459  T       0.00000000       0.00000000       0.00000000
Pd       6.86819907       6.87022881       7.41032528  T       0.00000000       0.00000000       0.00000000
Pd       6.85628335       1.37220074       7.41793541  T       0.00000000       0.00000000       0.00000000
Pd       1.36249832       1.38194112       7.42190147  T       0.00000000       0.00000000       0.00000000
Pd       8.24694032       8.25721015       5.42723813  T       0.00000000       0.00000000       0.00000000
Pd       5.49120397       8.25324044       5.43196898  T       0.00000000       0.00000000       0.00000000
Pd       2.74701806       8.26318623       5.43518933  T       0.00000000       0.00000000       0.00000000
Pd      -0.00535174       8.26743045       5.43214354  T       0.00000000       0.00000000       0.00000000
Pd       8.25031180       5.50236392       5.42707204  T       0.00000000       0.00000000       0.00000000
Pd       5.49634126       5.50028361       5.42628260  T       0.00000000       0.00000000       0.00000000
Pd       4.09810079       1.35814968       7.43732340  T       0.00000000       0.00000000       0.00000000
Pd       2.74910221       5.50862730       5.42664838  T       0.00000000       0.00000000       0.00000000
Pd       9.61662743       6.89514732       7.41214034  T       0.00000000       0.00000000       0.00000000
Pd       4.08851580       9.64350924       7.45053566  T       0.00000000       0.00000000       0.00000000
Pd       2.74150354       8.22870157       9.41949498  T       0.00000000       0.00000000       0.00000000
Pd      -0.01870608       8.26734939       9.41695818  T       0.00000000       0.00000000       0.00000000
Pd       8.23929795       5.50622577       9.40557515  T       0.00000000       0.00000000       0.00000000
Pd       5.48652745       5.48494664       9.40944818  T       0.00000000       0.00000000       0.00000000
Pd       2.73349652       5.50408113       9.40532046  T       0.00000000       0.00000000       0.00000000
Pd      -0.01585369       5.53401391       9.40025786  T       0.00000000       0.00000000       0.00000000
Pd       8.23558711       2.75749709       9.41584489  T       0.00000000       0.00000000       0.00000000
Pd       1.36095606       9.64096600       7.43307006  T       0.00000000       0.00000000       0.00000000
Pd       5.49128776       2.73874959       9.41150762  T       0.00000000       0.00000000       0.00000000
Pd      -0.02046725       2.80759371       9.39211506  T       0.00000000       0.00000000       0.00000000
Pd       8.19461554       0.00515539       9.41752417  T       0.00000000       0.00000000       0.00000000
Pd       5.48850120      -0.00976556       9.41390238  T       0.00000000       0.00000000       0.00000000
Pd       2.77280906      -0.01457003       9.50388379  T       0.00000000       0.00000000       0.00000000
Pd      -0.09828061       0.04468111       9.43864487  T       0.00000000       0.00000000       0.00000000
Pd       9.62120781       9.65373779       7.43712645  T       0.00000000       0.00000000       0.00000000
Pd       6.85875423       9.62641317       7.41170508  T       0.00000000       0.00000000       0.00000000
Pd       2.74101802       2.77774889       9.40226578  T       0.00000000       0.00000000       0.00000000
Pd      -0.00288232       5.51404328       5.42680445  T       0.00000000       0.00000000       0.00000000
Pd       8.24420859       2.75060660       5.42702683  T       0.00000000       0.00000000       0.00000000
Pd       5.49364668       2.74440284       5.43109819  T       0.00000000       0.00000000       0.00000000
Pd       1.37558630       1.37558630       3.44537281  F       0.00000000       0.00000000       0.00000000
Pd       8.25351783       8.25351783       1.50000000  F       0.00000000       0.00000000       0.00000000
Pd       5.50234522       8.25351783       1.50000000  F       0.00000000       0.00000000       0.00000000
Pd       2.75117261       8.25351783       1.50000000  F       0.00000000       0.00000000       0.00000000
Pd       0.00000000       8.25351783       1.50000000  F       0.00000000       0.00000000       0.00000000
Pd       8.25351783       5.50234522       1.50000000  F       0.00000000       0.00000000       0.00000000
Pd       5.50234522       5.50234522       1.50000000  F       0.00000000       0.00000000       0.00000000
Pd       4.12675891       1.37558630       3.44537281  F       0.00000000       0.00000000       0.00000000
Pd       2.75117261       5.50234522       1.50000000  F       0.00000000       0.00000000       0.00000000
Pd       8.25351783       2.75117261       1.50000000  F       0.00000000       0.00000000       0.00000000
Pd       5.50234522       2.75117261       1.50000000  F       0.00000000       0.00000000       0.00000000
Pd       2.75117261       2.75117261       1.50000000  F       0.00000000       0.00000000       0.00000000
Pd       0.00000000       2.75117261       1.50000000  F       0.00000000       0.00000000       0.00000000
Pd       8.25351783       0.00000000       1.50000000  F       0.00000000       0.00000000       0.00000000
Pd       5.50234522       0.00000000       1.50000000  F       0.00000000       0.00000000       0.00000000
Pd       2.75117261       0.00000000       1.50000000  F       0.00000000       0.00000000       0.00000000
Pd       0.00000000       5.50234522       1.50000000  F       0.00000000       0.00000000       0.00000000
Pd       6.87793152       1.37558630       3.44537281  F       0.00000000       0.00000000       0.00000000
Pd       9.62910413       1.37558630       3.44537281  F       0.00000000       0.00000000       0.00000000
Pd       1.37558630       4.12675891       3.44537281  F       0.00000000       0.00000000       0.00000000
Pd       2.74698328       2.74981444       5.43012473  T       0.00000000       0.00000000       0.00000000
Pd      -0.00806821       2.75348561       5.43094103  T       0.00000000       0.00000000       0.00000000
Pd       8.24343083       0.00047980       5.43316186  T       0.00000000       0.00000000       0.00000000
Pd       5.48598397      -0.00169416       5.43795065  T       0.00000000       0.00000000       0.00000000
Pd       2.73682231       0.00207484       5.43238526  T       0.00000000       0.00000000       0.00000000
Pd      -0.00816561       0.00748584       5.43723191  T       0.00000000       0.00000000       0.00000000
Pd       9.62910413       9.62910413       3.44537281  F       0.00000000       0.00000000       0.00000000
Pd       6.87793152       9.62910413       3.44537281  F       0.00000000       0.00000000       0.00000000
Pd       4.12675891       9.62910413       3.44537281  F       0.00000000       0.00000000       0.00000000
Pd       1.37558630       9.62910413       3.44537281  F       0.00000000       0.00000000       0.00000000
Pd       9.62910413       6.87793152       3.44537281  F       0.00000000       0.00000000       0.00000000
Pd       6.87793152       6.87793152       3.44537281  F       0.00000000       0.00000000       0.00000000
Pd       4.12675891       6.87793152       3.44537281  F       0.00000000       0.00000000       0.00000000
Pd       1.37558630       6.87793152       3.44537281  F       0.00000000       0.00000000       0.00000000
Pd       9.62910413       4.12675891       3.44537281  F       0.00000000       0.00000000       0.00000000
Pd       6.87793152       4.12675891       3.44537281  F       0.00000000       0.00000000       0.00000000
Pd       4.12675891       4.12675891       3.44537281  F       0.00000000       0.00000000       0.00000000
Pd       5.49884323       8.23837712       9.40792796  T       0.00000000       0.00000000       0.00000000
Pd       8.24018396       8.25747417       9.40951105  T       0.00000000       0.00000000       0.00000000
O        1.28120808       0.25248951      10.99344150  T       0.00000000       0.00000000       0.00000000
C        1.06820003      -0.61210273      12.11745576  T       0.00000000       0.00000000       0.00000000
H        0.24369907      -0.19316235      12.72738098  T       0.00000000       0.00000000       0.00000000
H        0.79244373      -1.63998899      11.79744249  T       0.00000000       0.00000000       0.00000000
H        1.98776331      -0.65073146      12.73004742  T       0.00000000       0.00000000       0.00000000
