85
Lattice="11.004690437655821 0.0 0.0 0.0 11.004690437655821 0.0 0.0 0.0 27.781491233325184" Properties=species:S:1:pos:R:3:move_mask:L:1:momenta:R:3 adsorbate_info="_JSON {\"site\": {\"coordinates\": [5.50234521882791, 6.877931523534889, 9.281491233325172], \"connectivity\": 2, \"topology\": [24, 78], \"n_vector\": [0.0055652750245801874, 0.005347199654425044, 0.9999702171413689], \"h_vector\": [0.0, 1.0, 0.0], \"site_formula\": {\"Pd\": 2}}, \"smiles\": \"ClOC\", \"mdf\": 2.0958301896282916, \"adsorbate_formula\": \"CH3O\"}" mace_E=-415.6308930375419 converged=T n_steps=71 d_min=1.9783003125829333 site_type=unknown dE_rel_meV=0 original_idx=185 rank=333 E_MACE=-415.5784947617886 pbc="T T T"
Pd       0.00000000       0.00000000       1.50000000  F       0.00000000       0.00000000       0.00000000
Pd       4.13310349       6.90714212       7.44444676  T       0.00000000       0.00000000       0.00000000
Pd       1.37480979       6.88627502       7.41693913  T       0.00000000       0.00000000       0.00000000
Pd       9.62195159       4.13421109       7.41918380  T       0.00000000       0.00000000       0.00000000
Pd       6.86928779       4.15467662       7.42304974  T       0.00000000       0.00000000       0.00000000
Pd       4.11936014       4.15444632       7.42178360  T       0.00000000       0.00000000       0.00000000
Pd       1.36609696       4.13363595       7.41806606  T       0.00000000       0.00000000       0.00000000
Pd       9.62609102       1.38612186       7.41192153  T       0.00000000       0.00000000       0.00000000
Pd       6.86119375       6.90583660       7.44473620  T       0.00000000       0.00000000       0.00000000
Pd       6.87387945       1.39322156       7.41940646  T       0.00000000       0.00000000       0.00000000
Pd       1.37048504       1.38493268       7.41133023  T       0.00000000       0.00000000       0.00000000
Pd       8.24424382       8.26172741       5.43640757  T       0.00000000       0.00000000       0.00000000
Pd       5.50054902       8.26658343       5.43570737  T       0.00000000       0.00000000       0.00000000
Pd       2.75734617       8.26172546       5.43669475  T       0.00000000       0.00000000       0.00000000
Pd      -0.00131838       8.25535166       5.43284616  T       0.00000000       0.00000000       0.00000000
Pd       8.24831081       5.51141680       5.43305394  T       0.00000000       0.00000000       0.00000000
Pd       5.49854435       5.52189957       5.43375103  T       0.00000000       0.00000000       0.00000000
Pd       4.12361604       1.39225348       7.41941616  T       0.00000000       0.00000000       0.00000000
Pd       2.74872711       5.51155267       5.43308343  T       0.00000000       0.00000000       0.00000000
Pd       9.61991742       6.88570325       7.41675412  T       0.00000000       0.00000000       0.00000000
Pd       4.14147411       9.63449458       7.44766656  T       0.00000000       0.00000000       0.00000000
Pd       2.73214784       8.27082525       9.41896665  T       0.00000000       0.00000000       0.00000000
Pd      -0.00199381       8.26014078       9.40301624  T       0.00000000       0.00000000       0.00000000
Pd       8.24963320       5.51537497       9.41517474  T       0.00000000       0.00000000       0.00000000
Pd       5.47976752       5.50637641       9.44997118  T       0.00000000       0.00000000       0.00000000
Pd       2.72499607       5.51240445       9.41416390  T       0.00000000       0.00000000       0.00000000
Pd      -0.01183414       5.50783615       9.41259996  T       0.00000000       0.00000000       0.00000000
Pd       8.24333635       2.76911251       9.41275360  T       0.00000000       0.00000000       0.00000000
Pd       1.38198053       9.63588063       7.41279013  T       0.00000000       0.00000000       0.00000000
Pd       5.49337279       2.78244732       9.41303445  T       0.00000000       0.00000000       0.00000000
Pd      -0.00855906       2.75193064       9.41205777  T       0.00000000       0.00000000       0.00000000
Pd       8.25901360       0.02247512       9.40986354  T       0.00000000       0.00000000       0.00000000
Pd       5.50165657       0.06412714       9.42038229  T       0.00000000       0.00000000       0.00000000
Pd       2.74111872       0.02366782       9.41026049  T       0.00000000       0.00000000       0.00000000
Pd      -0.00206102       0.00257916       9.40100214  T       0.00000000       0.00000000       0.00000000
Pd       9.62115731       9.63695395       7.41118638  T       0.00000000       0.00000000       0.00000000
Pd       6.86082520       9.63464191       7.44505117  T       0.00000000       0.00000000       0.00000000
Pd       2.74394045       2.76863950       9.41033548  T       0.00000000       0.00000000       0.00000000
Pd      -0.00375517       5.50694933       5.43162986  T       0.00000000       0.00000000       0.00000000
Pd       8.24944328       2.75984731       5.43137215  T       0.00000000       0.00000000       0.00000000
Pd       5.49945748       2.76396082       5.43471422  T       0.00000000       0.00000000       0.00000000
Pd       1.37558630       1.37558630       3.44537281  F       0.00000000       0.00000000       0.00000000
Pd       8.25351783       8.25351783       1.50000000  F       0.00000000       0.00000000       0.00000000
Pd       5.50234522       8.25351783       1.50000000  F       0.00000000       0.00000000       0.00000000
Pd       2.75117261       8.25351783       1.50000000  F       0.00000000       0.00000000       0.00000000
Pd       0.00000000       8.25351783       1.50000000  F       0.00000000       0.00000000       0.00000000
Pd       8.25351783       5.50234522       1.50000000  F       0.00000000       0.00000000       0.00000000
Pd       5.50234522       5.50234522       1.50000000  F       0.00000000       0.00000000       0.00000000
Pd       4.12675891       1.37558630       3.44537281  F       0.00000000       0.00000000       0.00000000
Pd       2.75117261       5.50234522       1.50000000  F       0.00000000       0.00000000       0.00000000
Pd       8.25351783       2.75117261       1.50000000  F       0.00000000       0.00000000       0.00000000
Pd       5.50234522       2.75117261       1.50000000  F       0.00000000       0.00000000       0.00000000
Pd       2.75117261       2.75117261       1.50000000  F       0.00000000       0.00000000       0.00000000
Pd       0.00000000       2.75117261       1.50000000  F       0.00000000       0.00000000       0.00000000
Pd       8.25351783       0.00000000       1.50000000  F       0.00000000       0.00000000       0.00000000
Pd       5.50234522       0.00000000       1.50000000  F       0.00000000       0.00000000       0.00000000
Pd       2.75117261       0.00000000       1.50000000  F       0.00000000       0.00000000       0.00000000
Pd       0.00000000       5.50234522       1.50000000  F       0.00000000       0.00000000       0.00000000
Pd       6.87793152       1.37558630       3.44537281  F       0.00000000       0.00000000       0.00000000
Pd       9.62910413       1.37558630       3.44537281  F       0.00000000       0.00000000       0.00000000
Pd       1.37558630       4.12675891       3.44537281  F       0.00000000       0.00000000       0.00000000
Pd       2.74928250       2.75941476       5.43152964  T       0.00000000       0.00000000       0.00000000
Pd      -0.00310088       2.75616883       5.42841751  T       0.00000000       0.00000000       0.00000000
Pd       8.24855139       0.00578530       5.43219423  T       0.00000000       0.00000000       0.00000000
Pd       5.50094050       0.00587317       5.43989938  T       0.00000000       0.00000000       0.00000000
Pd       2.75390090       0.00481041       5.43259753  T       0.00000000       0.00000000       0.00000000
Pd      -0.00092428       0.00027202       5.43078675  T       0.00000000       0.00000000       0.00000000
Pd       9.62910413       9.62910413       3.44537281  F       0.00000000       0.00000000       0.00000000
Pd       6.87793152       9.62910413       3.44537281  F       0.00000000       0.00000000       0.00000000
Pd       4.12675891       9.62910413       3.44537281  F       0.00000000       0.00000000       0.00000000
Pd       1.37558630       9.62910413       3.44537281  F       0.00000000       0.00000000       0.00000000
Pd       9.62910413       6.87793152       3.44537281  F       0.00000000       0.00000000       0.00000000
Pd       6.87793152       6.87793152       3.44537281  F       0.00000000       0.00000000       0.00000000
Pd       4.12675891       6.87793152       3.44537281  F       0.00000000       0.00000000       0.00000000
Pd       1.37558630       6.87793152       3.44537281  F       0.00000000       0.00000000       0.00000000
Pd       9.62910413       4.12675891       3.44537281  F       0.00000000       0.00000000       0.00000000
Pd       6.87793152       4.12675891       3.44537281  F       0.00000000       0.00000000       0.00000000
Pd       4.12675891       4.12675891       3.44537281  F       0.00000000       0.00000000       0.00000000
Pd       5.51164901       8.31193775       9.52335558  T       0.00000000       0.00000000       0.00000000
Pd       8.27244243       8.27238408       9.41580817  T       0.00000000       0.00000000       0.00000000
O        5.47534689       8.12599428      11.49833060  T       0.00000000       0.00000000       0.00000000
C        5.73706309       6.86765217      12.04454400  T       0.00000000       0.00000000       0.00000000
H        5.20722861       6.78000484      13.01540609  T       0.00000000       0.00000000       0.00000000
H        5.32989574       5.99355477      11.41312380  T       0.00000000       0.00000000       0.00000000
H        6.82061079       6.67019978      12.18749931  T       0.00000000       0.00000000       0.00000000
