85
Lattice="11.004690437655821 0.0 0.0 0.0 11.004690437655821 0.0 0.0 0.0 27.781491233325184" Properties=species:S:1:pos:R:3:move_mask:L:1:momenta:R:3 adsorbate_info="_JSON {\"site\": {\"coordinates\": [9.170575364713184, 1.8341150729426368, 9.281491233325172], \"connectivity\": 3, \"topology\": [27, 30, 31], \"n_vector\": [0.0657710592104807, -0.06754642461911796, 0.9955459046631177], \"h_vector\": [0.0, 1.0, 0.0], \"site_formula\": {\"Pd\": 3}}, \"smiles\": \"ClOC\", \"mdf\": 2.194744093945264, \"adsorbate_formula\": \"CH3O\"}" mace_E=-415.87077045525325 converged=T n_steps=60 d_min=2.1112740860642196 site_type=unknown dE_rel_meV=0 original_idx=279 rank=4 E_MACE=-415.8715408280033 pbc="T T T"
Pd       0.00000000       0.00000000       1.50000000  F       0.00000000       0.00000000       0.00000000
Pd       4.10132104       6.87458036       7.41881902  T       0.00000000       0.00000000       0.00000000
Pd       1.35256293       6.87121557       7.41418555  T       0.00000000       0.00000000       0.00000000
Pd       9.60939043       4.11632138       7.42405589  T       0.00000000       0.00000000       0.00000000
Pd       6.86632218       4.10547085       7.43638234  T       0.00000000       0.00000000       0.00000000
Pd       4.10328918       4.12340784       7.42056639  T       0.00000000       0.00000000       0.00000000
Pd       1.34498398       4.11094608       7.44234313  T       0.00000000       0.00000000       0.00000000
Pd       9.60925680       1.37280948       7.42705082  T       0.00000000       0.00000000       0.00000000
Pd       6.85097555       6.86455988       7.41318966  T       0.00000000       0.00000000       0.00000000
Pd       6.86532371       1.37956825       7.43471401  T       0.00000000       0.00000000       0.00000000
Pd       1.34974074       1.38577948       7.43792261  T       0.00000000       0.00000000       0.00000000
Pd       8.23758336       8.24717182       5.42648162  T       0.00000000       0.00000000       0.00000000
Pd       5.48885032       8.24937952       5.43042457  T       0.00000000       0.00000000       0.00000000
Pd       2.73739307       8.25093484       5.43031897  T       0.00000000       0.00000000       0.00000000
Pd      -0.01172416       8.24941712       5.42730094  T       0.00000000       0.00000000       0.00000000
Pd       8.23823611       5.49161730       5.43004760  T       0.00000000       0.00000000       0.00000000
Pd       5.48875767       5.49729368       5.43249731  T       0.00000000       0.00000000       0.00000000
Pd       4.10545000       1.37324663       7.41623585  T       0.00000000       0.00000000       0.00000000
Pd       2.73761284       5.49718359       5.43488836  T       0.00000000       0.00000000       0.00000000
Pd       9.60399458       6.86955794       7.40818230  T       0.00000000       0.00000000       0.00000000
Pd       4.10160590       9.62665236       7.41217347  T       0.00000000       0.00000000       0.00000000
Pd       2.71679551       8.25425620       9.40967802  T       0.00000000       0.00000000       0.00000000
Pd      -0.03127624       8.25359949       9.40228247  T       0.00000000       0.00000000       0.00000000
Pd       8.21767334       5.51156950       9.39941459  T       0.00000000       0.00000000       0.00000000
Pd       5.46846032       5.49730009       9.41030100  T       0.00000000       0.00000000       0.00000000
Pd       2.72133582       5.50430810       9.41539647  T       0.00000000       0.00000000       0.00000000
Pd      -0.02611007       5.52544651       9.40373535  T       0.00000000       0.00000000       0.00000000
Pd       8.17356445       2.73964293       9.46455962  T       0.00000000       0.00000000       0.00000000
Pd       1.35389057       9.63251401       7.41081880  T       0.00000000       0.00000000       0.00000000
Pd       5.45629237       2.74280853       9.41243969  T       0.00000000       0.00000000       0.00000000
Pd       0.03759214       2.74554362       9.48020295  T       0.00000000       0.00000000       0.00000000
Pd       8.22011672      -0.03731197       9.40118738  T       0.00000000       0.00000000       0.00000000
Pd       5.47010081      -0.01170071       9.40703311  T       0.00000000       0.00000000       0.00000000
Pd       2.72694394      -0.00598709       9.41181097  T       0.00000000       0.00000000       0.00000000
Pd      -0.02381108      -0.02633842       9.39800101  T       0.00000000       0.00000000       0.00000000
Pd       9.60406369       9.61733630       7.40517632  T       0.00000000       0.00000000       0.00000000
Pd       6.85091282       9.62196531       7.41269995  T       0.00000000       0.00000000       0.00000000
Pd       2.75364550       2.74889162       9.42613277  T       0.00000000       0.00000000       0.00000000
Pd      -0.00774137       5.49307923       5.43206193  T       0.00000000       0.00000000       0.00000000
Pd       8.24650977       2.74652789       5.42989462  T       0.00000000       0.00000000       0.00000000
Pd       5.49575017       2.75046516       5.43426924  T       0.00000000       0.00000000       0.00000000
Pd       1.37558630       1.37558630       3.44537281  F       0.00000000       0.00000000       0.00000000
Pd       8.25351783       8.25351783       1.50000000  F       0.00000000       0.00000000       0.00000000
Pd       5.50234522       8.25351783       1.50000000  F       0.00000000       0.00000000       0.00000000
Pd       2.75117261       8.25351783       1.50000000  F       0.00000000       0.00000000       0.00000000
Pd       0.00000000       8.25351783       1.50000000  F       0.00000000       0.00000000       0.00000000
Pd       8.25351783       5.50234522       1.50000000  F       0.00000000       0.00000000       0.00000000
Pd       5.50234522       5.50234522       1.50000000  F       0.00000000       0.00000000       0.00000000
Pd       4.12675891       1.37558630       3.44537281  F       0.00000000       0.00000000       0.00000000
Pd       2.75117261       5.50234522       1.50000000  F       0.00000000       0.00000000       0.00000000
Pd       8.25351783       2.75117261       1.50000000  F       0.00000000       0.00000000       0.00000000
Pd       5.50234522       2.75117261       1.50000000  F       0.00000000       0.00000000       0.00000000
Pd       2.75117261       2.75117261       1.50000000  F       0.00000000       0.00000000       0.00000000
Pd       0.00000000       2.75117261       1.50000000  F       0.00000000       0.00000000       0.00000000
Pd       8.25351783       0.00000000       1.50000000  F       0.00000000       0.00000000       0.00000000
Pd       5.50234522       0.00000000       1.50000000  F       0.00000000       0.00000000       0.00000000
Pd       2.75117261       0.00000000       1.50000000  F       0.00000000       0.00000000       0.00000000
Pd       0.00000000       5.50234522       1.50000000  F       0.00000000       0.00000000       0.00000000
Pd       6.87793152       1.37558630       3.44537281  F       0.00000000       0.00000000       0.00000000
Pd       9.62910413       1.37558630       3.44537281  F       0.00000000       0.00000000       0.00000000
Pd       1.37558630       4.12675891       3.44537281  F       0.00000000       0.00000000       0.00000000
Pd       2.73615358       2.75193606       5.43613940  T       0.00000000       0.00000000       0.00000000
Pd      -0.01114045       2.74881914       5.43291005  T       0.00000000       0.00000000       0.00000000
Pd       8.23954595      -0.00008848       5.43207897  T       0.00000000       0.00000000       0.00000000
Pd       5.49204457      -0.00019229       5.43044850  T       0.00000000       0.00000000       0.00000000
Pd       2.73772481       0.00277229       5.43087023  T       0.00000000       0.00000000       0.00000000
Pd      -0.01025811       0.00343133       5.43078259  T       0.00000000       0.00000000       0.00000000
Pd       9.62910413       9.62910413       3.44537281  F       0.00000000       0.00000000       0.00000000
Pd       6.87793152       9.62910413       3.44537281  F       0.00000000       0.00000000       0.00000000
Pd       4.12675891       9.62910413       3.44537281  F       0.00000000       0.00000000       0.00000000
Pd       1.37558630       9.62910413       3.44537281  F       0.00000000       0.00000000       0.00000000
Pd       9.62910413       6.87793152       3.44537281  F       0.00000000       0.00000000       0.00000000
Pd       6.87793152       6.87793152       3.44537281  F       0.00000000       0.00000000       0.00000000
Pd       4.12675891       6.87793152       3.44537281  F       0.00000000       0.00000000       0.00000000
Pd       1.37558630       6.87793152       3.44537281  F       0.00000000       0.00000000       0.00000000
Pd       9.62910413       4.12675891       3.44537281  F       0.00000000       0.00000000       0.00000000
Pd       6.87793152       4.12675891       3.44537281  F       0.00000000       0.00000000       0.00000000
Pd       4.12675891       4.12675891       3.44537281  F       0.00000000       0.00000000       0.00000000
Pd       5.46744900       8.24598484       9.41036693  T       0.00000000       0.00000000       0.00000000
Pd       8.22043033       8.23710837       9.40731033  T       0.00000000       0.00000000       0.00000000
O        9.59596879       2.78235704      11.01331257  T       0.00000000       0.00000000       0.00000000
C        9.56999870       1.73200812      11.98321101  T       0.00000000       0.00000000       0.00000000
H       10.48796339       1.77478118      12.59935160  T       0.00000000       0.00000000       0.00000000
H        8.68434232       1.86901803      12.63075012  T       0.00000000       0.00000000       0.00000000
H        9.50998281       0.72448289      11.50413915  T       0.00000000       0.00000000       0.00000000
