85
Lattice="11.004690437655821 0.0 0.0 0.0 11.004690437655821 0.0 0.0 0.0 27.781491233325184" Properties=species:S:1:pos:R:3:move_mask:L:1:momenta:R:3 adsorbate_info="_JSON {\"site\": {\"coordinates\": [0.9170575364713184, 7.336460291770547, 9.281491233325172], \"connectivity\": 3, \"topology\": [21, 22, 26], \"n_vector\": [0.05195085975506303, -0.07226262562425367, 0.9960317369986755], \"h_vector\": [0.0, 1.0, 0.0], \"site_formula\": {\"Pd\": 3}}, \"smiles\": \"ClOC\", \"mdf\": 2.2699842508663024, \"adsorbate_formula\": \"CH3O\"}" mace_E=-415.7330584325335 converged=T n_steps=49 d_min=2.1141763856401994 site_type=unknown dE_rel_meV=0 original_idx=41 rank=166 E_MACE=-415.8379284106458 pbc="T T T"
Pd       0.00000000       0.00000000       1.50000000  F       0.00000000       0.00000000       0.00000000
Pd       4.13063057       6.87971196       7.40609807  T       0.00000000       0.00000000       0.00000000
Pd       1.37400405       6.88490065       7.42322163  T       0.00000000       0.00000000       0.00000000
Pd       9.65686056       4.15465249       7.45174608  T       0.00000000       0.00000000       0.00000000
Pd       6.89207920       4.13131800       7.41404000  T       0.00000000       0.00000000       0.00000000
Pd       4.13684467       4.12783178       7.41400707  T       0.00000000       0.00000000       0.00000000
Pd       1.38152042       4.13786672       7.42274615  T       0.00000000       0.00000000       0.00000000
Pd       9.63228159       1.38667108       7.41922631  T       0.00000000       0.00000000       0.00000000
Pd       6.88034502       6.88232762       7.40642241  T       0.00000000       0.00000000       0.00000000
Pd       6.88137218       1.37908555       7.40999445  T       0.00000000       0.00000000       0.00000000
Pd       1.38084992       1.38525004       7.40954040  T       0.00000000       0.00000000       0.00000000
Pd       8.26063739       8.25896153       5.43097041  T       0.00000000       0.00000000       0.00000000
Pd       5.50633848       8.25506214       5.42681023  T       0.00000000       0.00000000       0.00000000
Pd       2.75009692       8.25769452       5.42898227  T       0.00000000       0.00000000       0.00000000
Pd      -0.00082941       8.25680759       5.43694811  T       0.00000000       0.00000000       0.00000000
Pd       8.26254329       5.50364505       5.43206945  T       0.00000000       0.00000000       0.00000000
Pd       5.50682496       5.50265907       5.42725095  T       0.00000000       0.00000000       0.00000000
Pd       4.13174978       1.37989188       7.40854045  T       0.00000000       0.00000000       0.00000000
Pd       2.75067720       5.50551735       5.43023088  T       0.00000000       0.00000000       0.00000000
Pd       9.62676030       6.88909741       7.42961972  T       0.00000000       0.00000000       0.00000000
Pd       4.13281473       9.63321942       7.41042087  T       0.00000000       0.00000000       0.00000000
Pd       2.78802829       8.27318727       9.40005650  T       0.00000000       0.00000000       0.00000000
Pd      -0.01565440       8.33897837       9.43879082  T       0.00000000       0.00000000       0.00000000
Pd       8.23275530       5.51522104       9.41691584  T       0.00000000       0.00000000       0.00000000
Pd       5.51363643       5.50335764       9.40516895  T       0.00000000       0.00000000       0.00000000
Pd       2.78890724       5.49693670       9.40318809  T       0.00000000       0.00000000       0.00000000
Pd      -0.00879206       5.44937224       9.47071464  T       0.00000000       0.00000000       0.00000000
Pd       8.26009737       2.76131980       9.40822759  T       0.00000000       0.00000000       0.00000000
Pd       1.37588520       9.64006850       7.41982660  T       0.00000000       0.00000000       0.00000000
Pd       5.51226334       2.75015734       9.40513998  T       0.00000000       0.00000000       0.00000000
Pd       0.01484248       2.74017608       9.41275227  T       0.00000000       0.00000000       0.00000000
Pd       8.25085142       0.01530171       9.41480237  T       0.00000000       0.00000000       0.00000000
Pd       5.50321185       0.00033045       9.40308221  T       0.00000000       0.00000000       0.00000000
Pd       2.75696862       0.01591220       9.40608139  T       0.00000000       0.00000000       0.00000000
Pd       0.00802349       0.04141286       9.41727516  T       0.00000000       0.00000000       0.00000000
Pd       9.64800968       9.62753398       7.45315006  T       0.00000000       0.00000000       0.00000000
Pd       6.88845898       9.63310146       7.41474273  T       0.00000000       0.00000000       0.00000000
Pd       2.76383974       2.74881377       9.40864113  T       0.00000000       0.00000000       0.00000000
Pd       0.00149909       5.51117628       5.43369314  T       0.00000000       0.00000000       0.00000000
Pd       8.26363852       2.75710634       5.43464664  T       0.00000000       0.00000000       0.00000000
Pd       5.50792975       2.75450960       5.42959971  T       0.00000000       0.00000000       0.00000000
Pd       1.37558630       1.37558630       3.44537281  F       0.00000000       0.00000000       0.00000000
Pd       8.25351783       8.25351783       1.50000000  F       0.00000000       0.00000000       0.00000000
Pd       5.50234522       8.25351783       1.50000000  F       0.00000000       0.00000000       0.00000000
Pd       2.75117261       8.25351783       1.50000000  F       0.00000000       0.00000000       0.00000000
Pd       0.00000000       8.25351783       1.50000000  F       0.00000000       0.00000000       0.00000000
Pd       8.25351783       5.50234522       1.50000000  F       0.00000000       0.00000000       0.00000000
Pd       5.50234522       5.50234522       1.50000000  F       0.00000000       0.00000000       0.00000000
Pd       4.12675891       1.37558630       3.44537281  F       0.00000000       0.00000000       0.00000000
Pd       2.75117261       5.50234522       1.50000000  F       0.00000000       0.00000000       0.00000000
Pd       8.25351783       2.75117261       1.50000000  F       0.00000000       0.00000000       0.00000000
Pd       5.50234522       2.75117261       1.50000000  F       0.00000000       0.00000000       0.00000000
Pd       2.75117261       2.75117261       1.50000000  F       0.00000000       0.00000000       0.00000000
Pd       0.00000000       2.75117261       1.50000000  F       0.00000000       0.00000000       0.00000000
Pd       8.25351783       0.00000000       1.50000000  F       0.00000000       0.00000000       0.00000000
Pd       5.50234522       0.00000000       1.50000000  F       0.00000000       0.00000000       0.00000000
Pd       2.75117261       0.00000000       1.50000000  F       0.00000000       0.00000000       0.00000000
Pd       0.00000000       5.50234522       1.50000000  F       0.00000000       0.00000000       0.00000000
Pd       6.87793152       1.37558630       3.44537281  F       0.00000000       0.00000000       0.00000000
Pd       9.62910413       1.37558630       3.44537281  F       0.00000000       0.00000000       0.00000000
Pd       1.37558630       4.12675891       3.44537281  F       0.00000000       0.00000000       0.00000000
Pd       2.75428953       2.75537048       5.42735436  T       0.00000000       0.00000000       0.00000000
Pd       0.00208890       2.76099711       5.43631464  T       0.00000000       0.00000000       0.00000000
Pd       8.25874885       0.00466923       5.43165558  T       0.00000000       0.00000000       0.00000000
Pd       5.50630555       0.00005367       5.42919650  T       0.00000000       0.00000000       0.00000000
Pd       2.75308710       0.00553769       5.42614165  T       0.00000000       0.00000000       0.00000000
Pd      -0.00019619       0.00282482       5.43520205  T       0.00000000       0.00000000       0.00000000
Pd       9.62910413       9.62910413       3.44537281  F       0.00000000       0.00000000       0.00000000
Pd       6.87793152       9.62910413       3.44537281  F       0.00000000       0.00000000       0.00000000
Pd       4.12675891       9.62910413       3.44537281  F       0.00000000       0.00000000       0.00000000
Pd       1.37558630       9.62910413       3.44537281  F       0.00000000       0.00000000       0.00000000
Pd       9.62910413       6.87793152       3.44537281  F       0.00000000       0.00000000       0.00000000
Pd       6.87793152       6.87793152       3.44537281  F       0.00000000       0.00000000       0.00000000
Pd       4.12675891       6.87793152       3.44537281  F       0.00000000       0.00000000       0.00000000
Pd       1.37558630       6.87793152       3.44537281  F       0.00000000       0.00000000       0.00000000
Pd       9.62910413       4.12675891       3.44537281  F       0.00000000       0.00000000       0.00000000
Pd       6.87793152       4.12675891       3.44537281  F       0.00000000       0.00000000       0.00000000
Pd       4.12675891       4.12675891       3.44537281  F       0.00000000       0.00000000       0.00000000
Pd       5.51172316       8.25360693       9.40251965  T       0.00000000       0.00000000       0.00000000
Pd       8.22849627       8.26307904       9.41960873  T       0.00000000       0.00000000       0.00000000
O        0.59379160       6.93302613      10.87049446  T       0.00000000       0.00000000       0.00000000
C        0.23525632       7.02739128      12.25900455  T       0.00000000       0.00000000       0.00000000
H        1.17233669       7.03249898      12.84747223  T       0.00000000       0.00000000       0.00000000
H       -0.32090537       7.96261771      12.45028125  T       0.00000000       0.00000000       0.00000000
H       -0.38015596       6.16299883      12.56356723  T       0.00000000       0.00000000       0.00000000
