85
Lattice="11.004690437655821 0.0 0.0 0.0 11.004690437655821 0.0 0.0 0.0 27.781491233325184" Properties=species:S:1:pos:R:3:move_mask:L:1:momenta:R:3 adsorbate_info="_JSON {\"site\": {\"coordinates\": [10.087632901184502, 0.9170575364713184, 9.281491233325172], \"connectivity\": 3, \"topology\": [30, 31, 34], \"n_vector\": [-0.05797054344853705, 0.056196361493202625, 0.9967353635981853], \"h_vector\": [1.0, 0.0, 0.0], \"site_formula\": {\"Pd\": 3}}, \"smiles\": \"ClOC\", \"mdf\": 2.036711690697877, \"adsorbate_formula\": \"CH3O\"}" mace_E=-415.8371434411998 converged=T n_steps=43 d_min=1.9647344005984515 site_type=unknown dE_rel_meV=0 original_idx=314 rank=335 E_MACE=-415.5689909410843 pbc="T T T"
Pd       0.00000000       0.00000000       1.50000000  F       0.00000000       0.00000000       0.00000000
Pd       4.10955432       6.86231761       7.41968393  T       0.00000000       0.00000000       0.00000000
Pd       1.35532677       6.86651105       7.41244439  T       0.00000000       0.00000000       0.00000000
Pd       9.61230851       4.11009856       7.43286743  T       0.00000000       0.00000000       0.00000000
Pd       6.85733890       4.11123740       7.41176066  T       0.00000000       0.00000000       0.00000000
Pd       4.09729602       4.11444317       7.41314705  T       0.00000000       0.00000000       0.00000000
Pd       1.33373031       4.10448400       7.44396002  T       0.00000000       0.00000000       0.00000000
Pd       9.62634865       1.36325805       7.43049380  T       0.00000000       0.00000000       0.00000000
Pd       6.85512860       6.85991285       7.41906568  T       0.00000000       0.00000000       0.00000000
Pd       6.86851911       1.35589861       7.40312968  T       0.00000000       0.00000000       0.00000000
Pd       1.36289395       1.36309021       7.42627217  T       0.00000000       0.00000000       0.00000000
Pd       8.24912103       8.24586432       5.43076234  T       0.00000000       0.00000000       0.00000000
Pd       5.49548974       8.24265951       5.43260883  T       0.00000000       0.00000000       0.00000000
Pd       2.74098765       8.24753493       5.43457959  T       0.00000000       0.00000000       0.00000000
Pd      -0.00461688       8.25500020       5.43459771  T       0.00000000       0.00000000       0.00000000
Pd       8.23936213       5.49385466       5.42827952  T       0.00000000       0.00000000       0.00000000
Pd       5.48866285       5.49346609       5.43174427  T       0.00000000       0.00000000       0.00000000
Pd       4.11373055       1.35795335       7.40621306  T       0.00000000       0.00000000       0.00000000
Pd       2.73783338       5.49602836       5.43205324  T       0.00000000       0.00000000       0.00000000
Pd       9.60674823       6.86396449       7.41109896  T       0.00000000       0.00000000       0.00000000
Pd       4.11599293       9.60809105       7.41665872  T       0.00000000       0.00000000       0.00000000
Pd       2.73801685       8.22493132       9.41299637  T       0.00000000       0.00000000       0.00000000
Pd      -0.01681443       8.21834982       9.41137239  T       0.00000000       0.00000000       0.00000000
Pd       8.21389188       5.48394887       9.41270413  T       0.00000000       0.00000000       0.00000000
Pd       5.46783410       5.47913175       9.41317942  T       0.00000000       0.00000000       0.00000000
Pd       2.71854274       5.48744255       9.40801378  T       0.00000000       0.00000000       0.00000000
Pd      -0.03770638       5.51859263       9.41344166  T       0.00000000       0.00000000       0.00000000
Pd       8.19588901       2.74025786       9.39898533  T       0.00000000       0.00000000       0.00000000
Pd       1.35105456       9.63170247       7.45059245  T       0.00000000       0.00000000       0.00000000
Pd       5.47277516       2.72930732       9.39552006  T       0.00000000       0.00000000       0.00000000
Pd      -0.02463070       2.80524241       9.46240081  T       0.00000000       0.00000000       0.00000000
Pd       8.22326869      -0.03904443       9.40524331  T       0.00000000       0.00000000       0.00000000
Pd       5.49845321      -0.02081989       9.39872511  T       0.00000000       0.00000000       0.00000000
Pd       2.77569159      -0.02745812       9.40819281  T       0.00000000       0.00000000       0.00000000
Pd       0.00008586      -0.07002812       9.47939844  T       0.00000000       0.00000000       0.00000000
Pd       9.63419232       9.62518425       7.43486933  T       0.00000000       0.00000000       0.00000000
Pd       6.87618160       9.60736442       7.41477600  T       0.00000000       0.00000000       0.00000000
Pd       2.75457975       2.73578139       9.40487539  T       0.00000000       0.00000000       0.00000000
Pd      -0.01252500       5.49278345       5.43133058  T       0.00000000       0.00000000       0.00000000
Pd       8.25177014       2.74228228       5.42559878  T       0.00000000       0.00000000       0.00000000
Pd       5.49212815       2.74272551       5.42726319  T       0.00000000       0.00000000       0.00000000
Pd       1.37558630       1.37558630       3.44537281  F       0.00000000       0.00000000       0.00000000
Pd       8.25351783       8.25351783       1.50000000  F       0.00000000       0.00000000       0.00000000
Pd       5.50234522       8.25351783       1.50000000  F       0.00000000       0.00000000       0.00000000
Pd       2.75117261       8.25351783       1.50000000  F       0.00000000       0.00000000       0.00000000
Pd       0.00000000       8.25351783       1.50000000  F       0.00000000       0.00000000       0.00000000
Pd       8.25351783       5.50234522       1.50000000  F       0.00000000       0.00000000       0.00000000
Pd       5.50234522       5.50234522       1.50000000  F       0.00000000       0.00000000       0.00000000
Pd       4.12675891       1.37558630       3.44537281  F       0.00000000       0.00000000       0.00000000
Pd       2.75117261       5.50234522       1.50000000  F       0.00000000       0.00000000       0.00000000
Pd       8.25351783       2.75117261       1.50000000  F       0.00000000       0.00000000       0.00000000
Pd       5.50234522       2.75117261       1.50000000  F       0.00000000       0.00000000       0.00000000
Pd       2.75117261       2.75117261       1.50000000  F       0.00000000       0.00000000       0.00000000
Pd       0.00000000       2.75117261       1.50000000  F       0.00000000       0.00000000       0.00000000
Pd       8.25351783       0.00000000       1.50000000  F       0.00000000       0.00000000       0.00000000
Pd       5.50234522       0.00000000       1.50000000  F       0.00000000       0.00000000       0.00000000
Pd       2.75117261       0.00000000       1.50000000  F       0.00000000       0.00000000       0.00000000
Pd       0.00000000       5.50234522       1.50000000  F       0.00000000       0.00000000       0.00000000
Pd       6.87793152       1.37558630       3.44537281  F       0.00000000       0.00000000       0.00000000
Pd       9.62910413       1.37558630       3.44537281  F       0.00000000       0.00000000       0.00000000
Pd       1.37558630       4.12675891       3.44537281  F       0.00000000       0.00000000       0.00000000
Pd       2.73596740       2.74538102       5.42908164  T       0.00000000       0.00000000       0.00000000
Pd      -0.00821775       2.74324010       5.43015344  T       0.00000000       0.00000000       0.00000000
Pd       8.25959834      -0.00907266       5.43037961  T       0.00000000       0.00000000       0.00000000
Pd       5.49855641      -0.01392389       5.42967230  T       0.00000000       0.00000000       0.00000000
Pd       2.74190775      -0.01290463       5.43167902  T       0.00000000       0.00000000       0.00000000
Pd      -0.00020253      -0.00240223       5.42993974  T       0.00000000       0.00000000       0.00000000
Pd       9.62910413       9.62910413       3.44537281  F       0.00000000       0.00000000       0.00000000
Pd       6.87793152       9.62910413       3.44537281  F       0.00000000       0.00000000       0.00000000
Pd       4.12675891       9.62910413       3.44537281  F       0.00000000       0.00000000       0.00000000
Pd       1.37558630       9.62910413       3.44537281  F       0.00000000       0.00000000       0.00000000
Pd       9.62910413       6.87793152       3.44537281  F       0.00000000       0.00000000       0.00000000
Pd       6.87793152       6.87793152       3.44537281  F       0.00000000       0.00000000       0.00000000
Pd       4.12675891       6.87793152       3.44537281  F       0.00000000       0.00000000       0.00000000
Pd       1.37558630       6.87793152       3.44537281  F       0.00000000       0.00000000       0.00000000
Pd       9.62910413       4.12675891       3.44537281  F       0.00000000       0.00000000       0.00000000
Pd       6.87793152       4.12675891       3.44537281  F       0.00000000       0.00000000       0.00000000
Pd       4.12675891       4.12675891       3.44537281  F       0.00000000       0.00000000       0.00000000
Pd       5.48865339       8.23549802       9.41773928  T       0.00000000       0.00000000       0.00000000
Pd       8.23709465       8.22055473       9.41082974  T       0.00000000       0.00000000       0.00000000
O       10.87939968       1.39071337      11.01956800  T       0.00000000       0.00000000       0.00000000
C        9.72593082       1.39180393      11.86393889  T       0.00000000       0.00000000       0.00000000
H       10.06856010       1.26531060      12.90765633  T       0.00000000       0.00000000       0.00000000
H        9.15849154       2.34496517      11.78217805  T       0.00000000       0.00000000       0.00000000
H        9.03216227       0.55397887      11.61149541  T       0.00000000       0.00000000       0.00000000
