85
Lattice="11.004690437655821 0.0 0.0 0.0 11.004690437655821 0.0 0.0 0.0 27.781491233325184" Properties=species:S:1:pos:R:3:move_mask:L:1:momenta:R:3 adsorbate_info="_JSON {\"site\": {\"coordinates\": [0.0, 4.126758914120933, 9.281491233325172], \"connectivity\": 2, \"topology\": [26, 30], \"n_vector\": [0.005097400624956038, 0.005302190590448637, 0.9999729512750888], \"h_vector\": [0.0, 1.0, 0.0], \"site_formula\": {\"Pd\": 2}}, \"smiles\": \"ClOC\", \"mdf\": 2.053083212171749, \"adsorbate_formula\": \"CH3O\"}" mace_E=-415.8711547968774 converged=T n_steps=71 d_min=2.1016764670127315 site_type=unknown dE_rel_meV=0 original_idx=9 rank=9 E_MACE=-415.8712087075652 pbc="T T T"
Pd       0.00000000       0.00000000       1.50000000  F       0.00000000       0.00000000       0.00000000
Pd       4.10999579       6.86555242       7.41124314  T       0.00000000       0.00000000       0.00000000
Pd       1.35359537       6.85450775       7.44130896  T       0.00000000       0.00000000       0.00000000
Pd       9.61404357       4.11223322       7.43402185  T       0.00000000       0.00000000       0.00000000
Pd       6.86099812       4.10861312       7.40497623  T       0.00000000       0.00000000       0.00000000
Pd       4.10660244       4.10889357       7.40448380  T       0.00000000       0.00000000       0.00000000
Pd       1.35398383       4.11259471       7.42453624  T       0.00000000       0.00000000       0.00000000
Pd       9.62432092       1.36834292       7.43291573  T       0.00000000       0.00000000       0.00000000
Pd       6.87138407       6.86411719       7.41530954  T       0.00000000       0.00000000       0.00000000
Pd       6.86818078       1.35512498       7.41677034  T       0.00000000       0.00000000       0.00000000
Pd       1.34859610       1.36899926       7.42939837  T       0.00000000       0.00000000       0.00000000
Pd       8.25305575       8.24510808       5.43356057  T       0.00000000       0.00000000       0.00000000
Pd       5.49967592       8.24374816       5.43132954  T       0.00000000       0.00000000       0.00000000
Pd       2.74458079       8.24592551       5.43026789  T       0.00000000       0.00000000       0.00000000
Pd      -0.00279299       8.24152513       5.43487528  T       0.00000000       0.00000000       0.00000000
Pd       8.25210307       5.49642360       5.43286735  T       0.00000000       0.00000000       0.00000000
Pd       5.49403326       5.49345428       5.42869407  T       0.00000000       0.00000000       0.00000000
Pd       4.10929228       1.35372255       7.41366560  T       0.00000000       0.00000000       0.00000000
Pd       2.73819301       5.49508713       5.43008242  T       0.00000000       0.00000000       0.00000000
Pd       9.62982799       6.85509579       7.44165306  T       0.00000000       0.00000000       0.00000000
Pd       4.12206474       9.61101975       7.41690863  T       0.00000000       0.00000000       0.00000000
Pd       2.74396369       8.23793666       9.41373705  T       0.00000000       0.00000000       0.00000000
Pd      -0.00622075       8.26249163       9.41741698  T       0.00000000       0.00000000       0.00000000
Pd       8.20809287       5.48629112       9.41071270  T       0.00000000       0.00000000       0.00000000
Pd       5.48235145       5.47577738       9.39545587  T       0.00000000       0.00000000       0.00000000
Pd       2.75391495       5.48527119       9.40422053  T       0.00000000       0.00000000       0.00000000
Pd      -0.02541671       5.55153067       9.47309814  T       0.00000000       0.00000000       0.00000000
Pd       8.20989838       2.72680842       9.40807640  T       0.00000000       0.00000000       0.00000000
Pd       1.36984250       9.61172002       7.41242448  T       0.00000000       0.00000000       0.00000000
Pd       5.48005355       2.72876567       9.40062698  T       0.00000000       0.00000000       0.00000000
Pd      -0.01996370       2.66827587       9.45328066  T       0.00000000       0.00000000       0.00000000
Pd       8.24082539      -0.02372325       9.41563953  T       0.00000000       0.00000000       0.00000000
Pd       5.48875500      -0.02372455       9.41557800  T       0.00000000       0.00000000       0.00000000
Pd       2.73774316      -0.02469043       9.40683507  T       0.00000000       0.00000000       0.00000000
Pd      -0.01240001      -0.04274612       9.40634986  T       0.00000000       0.00000000       0.00000000
Pd       9.61917277       9.61341113       7.41468802  T       0.00000000       0.00000000       0.00000000
Pd       6.86863962       9.61138000       7.42162324  T       0.00000000       0.00000000       0.00000000
Pd       2.75517202       2.72367476       9.40049783  T       0.00000000       0.00000000       0.00000000
Pd      -0.00867510       5.49392184       5.43298398  T       0.00000000       0.00000000       0.00000000
Pd       8.24710818       2.74121895       5.43147965  T       0.00000000       0.00000000       0.00000000
Pd       5.49338561       2.73628556       5.42870126  T       0.00000000       0.00000000       0.00000000
Pd       1.37558630       1.37558630       3.44537281  F       0.00000000       0.00000000       0.00000000
Pd       8.25351783       8.25351783       1.50000000  F       0.00000000       0.00000000       0.00000000
Pd       5.50234522       8.25351783       1.50000000  F       0.00000000       0.00000000       0.00000000
Pd       2.75117261       8.25351783       1.50000000  F       0.00000000       0.00000000       0.00000000
Pd       0.00000000       8.25351783       1.50000000  F       0.00000000       0.00000000       0.00000000
Pd       8.25351783       5.50234522       1.50000000  F       0.00000000       0.00000000       0.00000000
Pd       5.50234522       5.50234522       1.50000000  F       0.00000000       0.00000000       0.00000000
Pd       4.12675891       1.37558630       3.44537281  F       0.00000000       0.00000000       0.00000000
Pd       2.75117261       5.50234522       1.50000000  F       0.00000000       0.00000000       0.00000000
Pd       8.25351783       2.75117261       1.50000000  F       0.00000000       0.00000000       0.00000000
Pd       5.50234522       2.75117261       1.50000000  F       0.00000000       0.00000000       0.00000000
Pd       2.75117261       2.75117261       1.50000000  F       0.00000000       0.00000000       0.00000000
Pd       0.00000000       2.75117261       1.50000000  F       0.00000000       0.00000000       0.00000000
Pd       8.25351783       0.00000000       1.50000000  F       0.00000000       0.00000000       0.00000000
Pd       5.50234522       0.00000000       1.50000000  F       0.00000000       0.00000000       0.00000000
Pd       2.75117261       0.00000000       1.50000000  F       0.00000000       0.00000000       0.00000000
Pd       0.00000000       5.50234522       1.50000000  F       0.00000000       0.00000000       0.00000000
Pd       6.87793152       1.37558630       3.44537281  F       0.00000000       0.00000000       0.00000000
Pd       9.62910413       1.37558630       3.44537281  F       0.00000000       0.00000000       0.00000000
Pd       1.37558630       4.12675891       3.44537281  F       0.00000000       0.00000000       0.00000000
Pd       2.73911385       2.73902797       5.42912571  T       0.00000000       0.00000000       0.00000000
Pd      -0.01109457       2.75032138       5.42903260  T       0.00000000       0.00000000       0.00000000
Pd       8.24852907      -0.00854801       5.43150009  T       0.00000000       0.00000000       0.00000000
Pd       5.49650669      -0.01001484       5.43179841  T       0.00000000       0.00000000       0.00000000
Pd       2.74435224      -0.00900078       5.43143137  T       0.00000000       0.00000000       0.00000000
Pd      -0.00675089      -0.00285401       5.43227052  T       0.00000000       0.00000000       0.00000000
Pd       9.62910413       9.62910413       3.44537281  F       0.00000000       0.00000000       0.00000000
Pd       6.87793152       9.62910413       3.44537281  F       0.00000000       0.00000000       0.00000000
Pd       4.12675891       9.62910413       3.44537281  F       0.00000000       0.00000000       0.00000000
Pd       1.37558630       9.62910413       3.44537281  F       0.00000000       0.00000000       0.00000000
Pd       9.62910413       6.87793152       3.44537281  F       0.00000000       0.00000000       0.00000000
Pd       6.87793152       6.87793152       3.44537281  F       0.00000000       0.00000000       0.00000000
Pd       4.12675891       6.87793152       3.44537281  F       0.00000000       0.00000000       0.00000000
Pd       1.37558630       6.87793152       3.44537281  F       0.00000000       0.00000000       0.00000000
Pd       9.62910413       4.12675891       3.44537281  F       0.00000000       0.00000000       0.00000000
Pd       6.87793152       4.12675891       3.44537281  F       0.00000000       0.00000000       0.00000000
Pd       4.12675891       4.12675891       3.44537281  F       0.00000000       0.00000000       0.00000000
Pd       5.49222664       8.22209981       9.41330913  T       0.00000000       0.00000000       0.00000000
Pd       8.24456118       8.23825711       9.41595814  T       0.00000000       0.00000000       0.00000000
O        0.05295236       4.09076968      10.99867944  T       0.00000000       0.00000000       0.00000000
C       -0.98344242       4.07310010      11.98416124  T       0.00000000       0.00000000       0.00000000
H       -0.86509040       4.95780770      12.63705599  T       0.00000000       0.00000000       0.00000000
H       -2.00143586       4.10422579      11.52205351  T       0.00000000       0.00000000       0.00000000
H       -0.89527422       3.14815880      12.58526066  T       0.00000000       0.00000000       0.00000000
