85
Lattice="11.004690437655821 0.0 0.0 0.0 11.004690437655821 0.0 0.0 0.0 27.781491233325184" Properties=species:S:1:pos:R:3:move_mask:L:1:momenta:R:3 adsorbate_info="_JSON {\"site\": {\"coordinates\": [0.9170575364713184, 10.087632901184502, 9.281491233325172], \"connectivity\": 3, \"topology\": [22, 33, 34], \"n_vector\": [0.05619636149320262, -0.057970543448539726, 0.996735363598185], \"h_vector\": [0.0, 1.0, 0.0], \"site_formula\": {\"Pd\": 3}}, \"smiles\": \"ClOC\", \"mdf\": 2.1416266488640723, \"adsorbate_formula\": \"CH3O\"}" mace_E=-415.8706470408306 converged=T n_steps=64 d_min=2.111302046871632 site_type=unknown dE_rel_meV=0 original_idx=46 rank=3 E_MACE=-415.87155561885027 pbc="T T T"
Pd       0.00000000       0.00000000       1.50000000  F       0.00000000       0.00000000       0.00000000
Pd       4.12711748       6.89768910       7.41646586  T       0.00000000       0.00000000       0.00000000
Pd       1.36566919       6.90876777       7.44190773  T       0.00000000       0.00000000       0.00000000
Pd       9.63107915       4.15013209       7.41639411  T       0.00000000       0.00000000       0.00000000
Pd       6.87747270       4.15309499       7.41706493  T       0.00000000       0.00000000       0.00000000
Pd       4.12963348       4.15002697       7.41946162  T       0.00000000       0.00000000       0.00000000
Pd       1.37980654       4.14911822       7.41915636  T       0.00000000       0.00000000       0.00000000
Pd       9.65026953       1.38832665       7.43840614  T       0.00000000       0.00000000       0.00000000
Pd       6.88295146       6.89997812       7.41737818  T       0.00000000       0.00000000       0.00000000
Pd       6.88806978       1.40359614       7.41096276  T       0.00000000       0.00000000       0.00000000
Pd       1.37076206       1.38818274       7.44017896  T       0.00000000       0.00000000       0.00000000
Pd       8.26088721       8.26288692       5.43271337  T       0.00000000       0.00000000       0.00000000
Pd       5.50448610       8.26515042       5.42852028  T       0.00000000       0.00000000       0.00000000
Pd       2.74833113       8.26488863       5.43522602  T       0.00000000       0.00000000       0.00000000
Pd       0.00209007       8.26868200       5.43340472  T       0.00000000       0.00000000       0.00000000
Pd       8.25624201       5.51616124       5.43289814  T       0.00000000       0.00000000       0.00000000
Pd       5.50221191       5.51646026       5.43326402  T       0.00000000       0.00000000       0.00000000
Pd       4.13024592       1.39973054       7.41641391  T       0.00000000       0.00000000       0.00000000
Pd       2.74925265       5.51413409       5.43218601  T       0.00000000       0.00000000       0.00000000
Pd       9.64686268       6.91030966       7.44511880  T       0.00000000       0.00000000       0.00000000
Pd       4.13465341       9.65074766       7.41130952  T       0.00000000       0.00000000       0.00000000
Pd       2.78585947       8.26752358       9.40622790  T       0.00000000       0.00000000       0.00000000
Pd       0.01309053       8.21577530       9.48428759  T       0.00000000       0.00000000       0.00000000
Pd       8.25110286       5.52332995       9.41137044  T       0.00000000       0.00000000       0.00000000
Pd       5.50164439       5.54099044       9.41668290  T       0.00000000       0.00000000       0.00000000
Pd       2.75157894       5.51989122       9.41869258  T       0.00000000       0.00000000       0.00000000
Pd      -0.00027311       5.50324306       9.41948886  T       0.00000000       0.00000000       0.00000000
Pd       8.25667086       2.78327571       9.41209452  T       0.00000000       0.00000000       0.00000000
Pd       1.37960537       9.64887653       7.43414231  T       0.00000000       0.00000000       0.00000000
Pd       5.51035997       2.78578848       9.40904774  T       0.00000000       0.00000000       0.00000000
Pd       0.00536779       2.80400545       9.41801552  T       0.00000000       0.00000000       0.00000000
Pd       8.23256586       0.03441255       9.40320077  T       0.00000000       0.00000000       0.00000000
Pd       5.51280284       0.03657121       9.40407645  T       0.00000000       0.00000000       0.00000000
Pd       2.78500275       0.02820357       9.41245099  T       0.00000000       0.00000000       0.00000000
Pd       0.00034306       0.08982487       9.46302511  T       0.00000000       0.00000000       0.00000000
Pd       9.64170150       9.64895268       7.42554803  T       0.00000000       0.00000000       0.00000000
Pd       6.88576085       9.65301430       7.40868799  T       0.00000000       0.00000000       0.00000000
Pd       2.76132846       2.77826819       9.41525702  T       0.00000000       0.00000000       0.00000000
Pd       0.00004683       5.52112000       5.43651954  T       0.00000000       0.00000000       0.00000000
Pd       8.25922991       2.76461071       5.43319450  T       0.00000000       0.00000000       0.00000000
Pd       5.50333627       2.76430246       5.43152373  T       0.00000000       0.00000000       0.00000000
Pd       1.37558630       1.37558630       3.44537281  F       0.00000000       0.00000000       0.00000000
Pd       8.25351783       8.25351783       1.50000000  F       0.00000000       0.00000000       0.00000000
Pd       5.50234522       8.25351783       1.50000000  F       0.00000000       0.00000000       0.00000000
Pd       2.75117261       8.25351783       1.50000000  F       0.00000000       0.00000000       0.00000000
Pd       0.00000000       8.25351783       1.50000000  F       0.00000000       0.00000000       0.00000000
Pd       8.25351783       5.50234522       1.50000000  F       0.00000000       0.00000000       0.00000000
Pd       5.50234522       5.50234522       1.50000000  F       0.00000000       0.00000000       0.00000000
Pd       4.12675891       1.37558630       3.44537281  F       0.00000000       0.00000000       0.00000000
Pd       2.75117261       5.50234522       1.50000000  F       0.00000000       0.00000000       0.00000000
Pd       8.25351783       2.75117261       1.50000000  F       0.00000000       0.00000000       0.00000000
Pd       5.50234522       2.75117261       1.50000000  F       0.00000000       0.00000000       0.00000000
Pd       2.75117261       2.75117261       1.50000000  F       0.00000000       0.00000000       0.00000000
Pd       0.00000000       2.75117261       1.50000000  F       0.00000000       0.00000000       0.00000000
Pd       8.25351783       0.00000000       1.50000000  F       0.00000000       0.00000000       0.00000000
Pd       5.50234522       0.00000000       1.50000000  F       0.00000000       0.00000000       0.00000000
Pd       2.75117261       0.00000000       1.50000000  F       0.00000000       0.00000000       0.00000000
Pd       0.00000000       5.50234522       1.50000000  F       0.00000000       0.00000000       0.00000000
Pd       6.87793152       1.37558630       3.44537281  F       0.00000000       0.00000000       0.00000000
Pd       9.62910413       1.37558630       3.44537281  F       0.00000000       0.00000000       0.00000000
Pd       1.37558630       4.12675891       3.44537281  F       0.00000000       0.00000000       0.00000000
Pd       2.75105426       2.76161124       5.43389925  T       0.00000000       0.00000000       0.00000000
Pd       0.00288788       2.76090500       5.43861150  T       0.00000000       0.00000000       0.00000000
Pd       8.26226845       0.01485670       5.43256662  T       0.00000000       0.00000000       0.00000000
Pd       5.50478408       0.01366236       5.42769755  T       0.00000000       0.00000000       0.00000000
Pd       2.75118686       0.01338456       5.43407651  T       0.00000000       0.00000000       0.00000000
Pd       0.00588061       0.00952036       5.43581146  T       0.00000000       0.00000000       0.00000000
Pd       9.62910413       9.62910413       3.44537281  F       0.00000000       0.00000000       0.00000000
Pd       6.87793152       9.62910413       3.44537281  F       0.00000000       0.00000000       0.00000000
Pd       4.12675891       9.62910413       3.44537281  F       0.00000000       0.00000000       0.00000000
Pd       1.37558630       9.62910413       3.44537281  F       0.00000000       0.00000000       0.00000000
Pd       9.62910413       6.87793152       3.44537281  F       0.00000000       0.00000000       0.00000000
Pd       6.87793152       6.87793152       3.44537281  F       0.00000000       0.00000000       0.00000000
Pd       4.12675891       6.87793152       3.44537281  F       0.00000000       0.00000000       0.00000000
Pd       1.37558630       6.87793152       3.44537281  F       0.00000000       0.00000000       0.00000000
Pd       9.62910413       4.12675891       3.44537281  F       0.00000000       0.00000000       0.00000000
Pd       6.87793152       4.12675891       3.44537281  F       0.00000000       0.00000000       0.00000000
Pd       4.12675891       4.12675891       3.44537281  F       0.00000000       0.00000000       0.00000000
Pd       5.51388921       8.29268392       9.40757060  T       0.00000000       0.00000000       0.00000000
Pd       8.23830526       8.27525024       9.40609089  T       0.00000000       0.00000000       0.00000000
O       -0.04490700       9.66707585      11.01859825  T       0.00000000       0.00000000       0.00000000
C        1.01099786       9.73303126      11.98078005  T       0.00000000       0.00000000       0.00000000
H        1.06255506       8.77872609      12.53800097  T       0.00000000       0.00000000       0.00000000
H        2.00708243       9.91615731      11.49997771  T       0.00000000       0.00000000       0.00000000
H        0.79789928      10.56213727      12.68223268  T       0.00000000       0.00000000       0.00000000
