85
Lattice="11.004690437655821 0.0 0.0 0.0 11.004690437655821 0.0 0.0 0.0 27.781491233325184" Properties=species:S:1:pos:R:3:move_mask:L:1:momenta:R:3 adsorbate_info="_JSON {\"site\": {\"coordinates\": [0.0, 5.5023452188279105, 9.281491233325172], \"connectivity\": 1, \"topology\": [26], \"n_vector\": [0.0020924987949627175, -0.00013121629805082715, 0.9999978021131227], \"h_vector\": [1.0, 0.0, 0.0], \"site_formula\": {\"Pd\": 1}}, \"smiles\": \"ClOC\", \"mdf\": 1.7097869690905103, \"adsorbate_formula\": \"CH3O\"}" mace_E=-415.86662829573385 converged=T n_steps=58 d_min=1.9799792642172804 site_type=unknown dE_rel_meV=0 original_idx=12 rank=332 E_MACE=-415.59787426320133 pbc="T T T"
Pd       0.00000000       0.00000000       1.50000000  F       0.00000000       0.00000000       0.00000000
Pd       4.09506828       6.87099787       7.44428264  T       0.00000000       0.00000000       0.00000000
Pd       1.35560163       6.90353568       7.43608258  T       0.00000000       0.00000000       0.00000000
Pd       9.61305521       4.15991154       7.44416161  T       0.00000000       0.00000000       0.00000000
Pd       6.85510989       4.12661875       7.42031093  T       0.00000000       0.00000000       0.00000000
Pd       4.09057867       4.14274718       7.44393603  T       0.00000000       0.00000000       0.00000000
Pd       1.35510717       4.15584049       7.43423060  T       0.00000000       0.00000000       0.00000000
Pd       9.61229415       1.40275031       7.40344220  T       0.00000000       0.00000000       0.00000000
Pd       6.85551243       6.87691147       7.42011444  T       0.00000000       0.00000000       0.00000000
Pd       6.86221111       1.37739316       7.40937396  T       0.00000000       0.00000000       0.00000000
Pd       1.36755315       1.40366340       7.40725028  T       0.00000000       0.00000000       0.00000000
Pd       8.24574040       8.25164948       5.42939793  T       0.00000000       0.00000000       0.00000000
Pd       5.49104806       8.24764182       5.43064838  T       0.00000000       0.00000000       0.00000000
Pd       2.74479057       8.25783982       5.43596489  T       0.00000000       0.00000000       0.00000000
Pd      -0.00782088       8.26041108       5.43271610  T       0.00000000       0.00000000       0.00000000
Pd       8.24381315       5.50490174       5.43606726  T       0.00000000       0.00000000       0.00000000
Pd       5.48170633       5.50031914       5.43696593  T       0.00000000       0.00000000       0.00000000
Pd       4.11530100       1.38470910       7.41779467  T       0.00000000       0.00000000       0.00000000
Pd       2.73502941       5.51213863       5.43541406  T       0.00000000       0.00000000       0.00000000
Pd       9.61484051       6.88423254       7.44063300  T       0.00000000       0.00000000       0.00000000
Pd       4.11902786       9.62952256       7.41480600  T       0.00000000       0.00000000       0.00000000
Pd       2.73693600       8.30625313       9.40735895  T       0.00000000       0.00000000       0.00000000
Pd      -0.02828043       8.31591821       9.40862813  T       0.00000000       0.00000000       0.00000000
Pd       8.19717972       5.51421213       9.42234610  T       0.00000000       0.00000000       0.00000000
Pd       5.49510427       5.48887114       9.41925840  T       0.00000000       0.00000000       0.00000000
Pd       2.78788497       5.54136951       9.48743570  T       0.00000000       0.00000000       0.00000000
Pd      -0.09664161       5.53686474       9.47223943  T       0.00000000       0.00000000       0.00000000
Pd       8.22408008       2.75983553       9.41421795  T       0.00000000       0.00000000       0.00000000
Pd       1.36655819       9.65894958       7.40778982  T       0.00000000       0.00000000       0.00000000
Pd       5.48433124       2.73799009       9.41446565  T       0.00000000       0.00000000       0.00000000
Pd      -0.03664973       2.75738562       9.40054351  T       0.00000000       0.00000000       0.00000000
Pd       8.24561117       0.01385576       9.39002928  T       0.00000000       0.00000000       0.00000000
Pd       5.49496591      -0.01234921       9.40922101  T       0.00000000       0.00000000       0.00000000
Pd       2.73815348       0.02383108       9.40886044  T       0.00000000       0.00000000       0.00000000
Pd      -0.01379032       0.03769349       9.39322889  T       0.00000000       0.00000000       0.00000000
Pd       9.61588997       9.64269007       7.40642663  T       0.00000000       0.00000000       0.00000000
Pd       6.86673337       9.62442613       7.40914171  T       0.00000000       0.00000000       0.00000000
Pd       2.73070717       2.75198527       9.41221425  T       0.00000000       0.00000000       0.00000000
Pd      -0.00744382       5.51668602       5.43177390  T       0.00000000       0.00000000       0.00000000
Pd       8.24268966       2.76208768       5.42956160  T       0.00000000       0.00000000       0.00000000
Pd       5.48970828       2.75339167       5.43163500  T       0.00000000       0.00000000       0.00000000
Pd       1.37558630       1.37558630       3.44537281  F       0.00000000       0.00000000       0.00000000
Pd       8.25351783       8.25351783       1.50000000  F       0.00000000       0.00000000       0.00000000
Pd       5.50234522       8.25351783       1.50000000  F       0.00000000       0.00000000       0.00000000
Pd       2.75117261       8.25351783       1.50000000  F       0.00000000       0.00000000       0.00000000
Pd       0.00000000       8.25351783       1.50000000  F       0.00000000       0.00000000       0.00000000
Pd       8.25351783       5.50234522       1.50000000  F       0.00000000       0.00000000       0.00000000
Pd       5.50234522       5.50234522       1.50000000  F       0.00000000       0.00000000       0.00000000
Pd       4.12675891       1.37558630       3.44537281  F       0.00000000       0.00000000       0.00000000
Pd       2.75117261       5.50234522       1.50000000  F       0.00000000       0.00000000       0.00000000
Pd       8.25351783       2.75117261       1.50000000  F       0.00000000       0.00000000       0.00000000
Pd       5.50234522       2.75117261       1.50000000  F       0.00000000       0.00000000       0.00000000
Pd       2.75117261       2.75117261       1.50000000  F       0.00000000       0.00000000       0.00000000
Pd       0.00000000       2.75117261       1.50000000  F       0.00000000       0.00000000       0.00000000
Pd       8.25351783       0.00000000       1.50000000  F       0.00000000       0.00000000       0.00000000
Pd       5.50234522       0.00000000       1.50000000  F       0.00000000       0.00000000       0.00000000
Pd       2.75117261       0.00000000       1.50000000  F       0.00000000       0.00000000       0.00000000
Pd       0.00000000       5.50234522       1.50000000  F       0.00000000       0.00000000       0.00000000
Pd       6.87793152       1.37558630       3.44537281  F       0.00000000       0.00000000       0.00000000
Pd       9.62910413       1.37558630       3.44537281  F       0.00000000       0.00000000       0.00000000
Pd       1.37558630       4.12675891       3.44537281  F       0.00000000       0.00000000       0.00000000
Pd       2.74480442       2.76821823       5.43338800  T       0.00000000       0.00000000       0.00000000
Pd      -0.00986853       2.77290896       5.43013443  T       0.00000000       0.00000000       0.00000000
Pd       8.24673273       0.00425251       5.42624070  T       0.00000000       0.00000000       0.00000000
Pd       5.49502328      -0.00066617       5.42873549  T       0.00000000       0.00000000       0.00000000
Pd       2.75015192       0.01081763       5.42628786  T       0.00000000       0.00000000       0.00000000
Pd      -0.00535619       0.01421249       5.42355934  T       0.00000000       0.00000000       0.00000000
Pd       9.62910413       9.62910413       3.44537281  F       0.00000000       0.00000000       0.00000000
Pd       6.87793152       9.62910413       3.44537281  F       0.00000000       0.00000000       0.00000000
Pd       4.12675891       9.62910413       3.44537281  F       0.00000000       0.00000000       0.00000000
Pd       1.37558630       9.62910413       3.44537281  F       0.00000000       0.00000000       0.00000000
Pd       9.62910413       6.87793152       3.44537281  F       0.00000000       0.00000000       0.00000000
Pd       6.87793152       6.87793152       3.44537281  F       0.00000000       0.00000000       0.00000000
Pd       4.12675891       6.87793152       3.44537281  F       0.00000000       0.00000000       0.00000000
Pd       1.37558630       6.87793152       3.44537281  F       0.00000000       0.00000000       0.00000000
Pd       9.62910413       4.12675891       3.44537281  F       0.00000000       0.00000000       0.00000000
Pd       6.87793152       4.12675891       3.44537281  F       0.00000000       0.00000000       0.00000000
Pd       4.12675891       4.12675891       3.44537281  F       0.00000000       0.00000000       0.00000000
Pd       5.49022773       8.24272599       9.41709591  T       0.00000000       0.00000000       0.00000000
Pd       8.23241941       8.26968723       9.41392635  T       0.00000000       0.00000000       0.00000000
O        1.32631523       5.47930805      11.01464062  T       0.00000000       0.00000000       0.00000000
C        1.28024695       6.51308707      12.00204146  T       0.00000000       0.00000000       0.00000000
H        2.22526431       6.50861325      12.57474379  T       0.00000000       0.00000000       0.00000000
H        1.14367116       7.52567795      11.54766151  T       0.00000000       0.00000000       0.00000000
H        0.43387932       6.31088744      12.68446127  T       0.00000000       0.00000000       0.00000000
