85
Lattice="11.004690437655821 0.0 0.0 0.0 11.004690437655821 0.0 0.0 0.0 27.781491233325184" Properties=species:S:1:pos:R:3:move_mask:L:1:momenta:R:3 adsorbate_info="_JSON {\"site\": {\"coordinates\": [6.877931523534889, 8.253517828241865, 9.281491233325172], \"connectivity\": 2, \"topology\": [78, 79], \"n_vector\": [0.005347212125127966, 0.0051291362463815595, 0.9999725492651561], \"h_vector\": [1.0, 0.0, 0.0], \"site_formula\": {\"Pd\": 2}}, \"smiles\": \"ClOC\", \"mdf\": 2.092018529198832, \"adsorbate_formula\": \"CH3O\"}" mace_E=-415.6282313111331 converged=T n_steps=63 d_min=2.12660480764607 site_type=unknown dE_rel_meV=0 original_idx=226 rank=169 E_MACE=-415.8377800045185 pbc="T T T"
Pd       0.00000000       0.00000000       1.50000000  F       0.00000000       0.00000000       0.00000000
Pd       4.13487624       6.88656807       7.44793371  T       0.00000000       0.00000000       0.00000000
Pd       1.36778082       6.87235836       7.41376773  T       0.00000000       0.00000000       0.00000000
Pd       9.63789319       4.12202933       7.40608492  T       0.00000000       0.00000000       0.00000000
Pd       6.88004407       4.12512931       7.41453930  T       0.00000000       0.00000000       0.00000000
Pd       4.13347131       4.12728040       7.42361480  T       0.00000000       0.00000000       0.00000000
Pd       1.38216903       4.11947456       7.41649682  T       0.00000000       0.00000000       0.00000000
Pd       9.63678523       1.36495291       7.40696407  T       0.00000000       0.00000000       0.00000000
Pd       6.85841376       6.88161628       7.44348709  T       0.00000000       0.00000000       0.00000000
Pd       6.87784314       1.36330913       7.41463352  T       0.00000000       0.00000000       0.00000000
Pd       1.38156060       1.37231893       7.41577791  T       0.00000000       0.00000000       0.00000000
Pd       8.23756473       8.24933683       5.43088896  T       0.00000000       0.00000000       0.00000000
Pd       5.49567019       8.24977491       5.44021097  T       0.00000000       0.00000000       0.00000000
Pd       2.75467163       8.25028153       5.43865104  T       0.00000000       0.00000000       0.00000000
Pd      -0.00906388       8.24964437       5.42983942  T       0.00000000       0.00000000       0.00000000
Pd       8.24973910       5.50286179       5.42936755  T       0.00000000       0.00000000       0.00000000
Pd       5.49710461       5.50607716       5.43615278  T       0.00000000       0.00000000       0.00000000
Pd       4.13138875       1.36839183       7.42288825  T       0.00000000       0.00000000       0.00000000
Pd       2.75407769       5.50163139       5.43502732  T       0.00000000       0.00000000       0.00000000
Pd       9.61276470       6.86999325       7.41914440  T       0.00000000       0.00000000       0.00000000
Pd       4.12584085       9.61792578       7.43875430  T       0.00000000       0.00000000       0.00000000
Pd       2.70220727       8.25168545       9.41166938  T       0.00000000       0.00000000       0.00000000
Pd      -0.01519292       8.24234331       9.40520216  T       0.00000000       0.00000000       0.00000000
Pd       8.26301515       5.47004952       9.40378576  T       0.00000000       0.00000000       0.00000000
Pd       5.50195368       5.47004247       9.42301432  T       0.00000000       0.00000000       0.00000000
Pd       2.73595433       5.49293395       9.41328434  T       0.00000000       0.00000000       0.00000000
Pd      -0.00204763       5.49078617       9.41063957  T       0.00000000       0.00000000       0.00000000
Pd       8.27348730       2.73801628       9.40041480  T       0.00000000       0.00000000       0.00000000
Pd       1.36511933       9.62476778       7.41282139  T       0.00000000       0.00000000       0.00000000
Pd       5.52102309       2.74255017       9.41762567  T       0.00000000       0.00000000       0.00000000
Pd       0.01324067       2.74313732       9.40897517  T       0.00000000       0.00000000       0.00000000
Pd       8.25835012       0.00072587       9.39949573  T       0.00000000       0.00000000       0.00000000
Pd       5.49483208       0.01117615       9.41908981  T       0.00000000       0.00000000       0.00000000
Pd       2.73061065       0.00358926       9.41502521  T       0.00000000       0.00000000       0.00000000
Pd      -0.00554861      -0.00886960       9.40857347  T       0.00000000       0.00000000       0.00000000
Pd       9.61273927       9.61957963       7.41583298  T       0.00000000       0.00000000       0.00000000
Pd       6.85822451       9.61050287       7.44018586  T       0.00000000       0.00000000       0.00000000
Pd       2.76508185       2.74740786       9.41663164  T       0.00000000       0.00000000       0.00000000
Pd       0.00061406       5.50191621       5.42801857  T       0.00000000       0.00000000       0.00000000
Pd       8.25444497       2.74701291       5.43257316  T       0.00000000       0.00000000       0.00000000
Pd       5.50403087       2.74888924       5.43317149  T       0.00000000       0.00000000       0.00000000
Pd       1.37558630       1.37558630       3.44537281  F       0.00000000       0.00000000       0.00000000
Pd       8.25351783       8.25351783       1.50000000  F       0.00000000       0.00000000       0.00000000
Pd       5.50234522       8.25351783       1.50000000  F       0.00000000       0.00000000       0.00000000
Pd       2.75117261       8.25351783       1.50000000  F       0.00000000       0.00000000       0.00000000
Pd       0.00000000       8.25351783       1.50000000  F       0.00000000       0.00000000       0.00000000
Pd       8.25351783       5.50234522       1.50000000  F       0.00000000       0.00000000       0.00000000
Pd       5.50234522       5.50234522       1.50000000  F       0.00000000       0.00000000       0.00000000
Pd       4.12675891       1.37558630       3.44537281  F       0.00000000       0.00000000       0.00000000
Pd       2.75117261       5.50234522       1.50000000  F       0.00000000       0.00000000       0.00000000
Pd       8.25351783       2.75117261       1.50000000  F       0.00000000       0.00000000       0.00000000
Pd       5.50234522       2.75117261       1.50000000  F       0.00000000       0.00000000       0.00000000
Pd       2.75117261       2.75117261       1.50000000  F       0.00000000       0.00000000       0.00000000
Pd       0.00000000       2.75117261       1.50000000  F       0.00000000       0.00000000       0.00000000
Pd       8.25351783       0.00000000       1.50000000  F       0.00000000       0.00000000       0.00000000
Pd       5.50234522       0.00000000       1.50000000  F       0.00000000       0.00000000       0.00000000
Pd       2.75117261       0.00000000       1.50000000  F       0.00000000       0.00000000       0.00000000
Pd       0.00000000       5.50234522       1.50000000  F       0.00000000       0.00000000       0.00000000
Pd       6.87793152       1.37558630       3.44537281  F       0.00000000       0.00000000       0.00000000
Pd       9.62910413       1.37558630       3.44537281  F       0.00000000       0.00000000       0.00000000
Pd       1.37558630       4.12675891       3.44537281  F       0.00000000       0.00000000       0.00000000
Pd       2.75845714       2.74964299       5.43425133  T       0.00000000       0.00000000       0.00000000
Pd       0.00619281       2.74741508       5.42980624  T       0.00000000       0.00000000       0.00000000
Pd       8.24881871      -0.00758859       5.43062571  T       0.00000000       0.00000000       0.00000000
Pd       5.49669283      -0.00877764       5.43424584  T       0.00000000       0.00000000       0.00000000
Pd       2.75159728      -0.00276497       5.43147843  T       0.00000000       0.00000000       0.00000000
Pd      -0.00065987      -0.00521922       5.42783181  T       0.00000000       0.00000000       0.00000000
Pd       9.62910413       9.62910413       3.44537281  F       0.00000000       0.00000000       0.00000000
Pd       6.87793152       9.62910413       3.44537281  F       0.00000000       0.00000000       0.00000000
Pd       4.12675891       9.62910413       3.44537281  F       0.00000000       0.00000000       0.00000000
Pd       1.37558630       9.62910413       3.44537281  F       0.00000000       0.00000000       0.00000000
Pd       9.62910413       6.87793152       3.44537281  F       0.00000000       0.00000000       0.00000000
Pd       6.87793152       6.87793152       3.44537281  F       0.00000000       0.00000000       0.00000000
Pd       4.12675891       6.87793152       3.44537281  F       0.00000000       0.00000000       0.00000000
Pd       1.37558630       6.87793152       3.44537281  F       0.00000000       0.00000000       0.00000000
Pd       9.62910413       4.12675891       3.44537281  F       0.00000000       0.00000000       0.00000000
Pd       6.87793152       4.12675891       3.44537281  F       0.00000000       0.00000000       0.00000000
Pd       4.12675891       4.12675891       3.44537281  F       0.00000000       0.00000000       0.00000000
Pd       5.45345711       8.24203067       9.51021953  T       0.00000000       0.00000000       0.00000000
Pd       8.25720502       8.23061214       9.45002992  T       0.00000000       0.00000000       0.00000000
O        5.65195173       8.38424234      11.48262563  T       0.00000000       0.00000000       0.00000000
C        6.91998304       8.66855361      11.98846316  T       0.00000000       0.00000000       0.00000000
H        6.99839042       8.24041050      13.00906691  T       0.00000000       0.00000000       0.00000000
H        7.78204689       8.16956110      11.40476272  T       0.00000000       0.00000000       0.00000000
H        7.15411373       9.75547664      12.00668457  T       0.00000000       0.00000000       0.00000000
