85
Lattice="11.004690437655821 0.0 0.0 0.0 11.004690437655821 0.0 0.0 0.0 27.781491233325184" Properties=species:S:1:pos:R:3:move_mask:L:1:momenta:R:3 adsorbate_info="_JSON {\"site\": {\"coordinates\": [1.3755863047069776, 2.7511726094139553, 9.281491233325172], \"connectivity\": 2, \"topology\": [30, 37], \"n_vector\": [0.002975260766706483, 0.003112057918836607, 0.9999907314164866], \"h_vector\": [1.0, 0.0, 0.0], \"site_formula\": {\"Pd\": 2}}, \"smiles\": \"ClOC\", \"mdf\": 2.0948886034273593, \"adsorbate_formula\": \"CH3O\"}" mace_E=-415.62820973512436 converged=T n_steps=63 d_min=2.126610414392606 site_type=unknown dE_rel_meV=0 original_idx=52 rank=167 E_MACE=-415.83778789547705 pbc="T T T"
Pd       0.00000000       0.00000000       1.50000000  F       0.00000000       0.00000000       0.00000000
Pd       4.13424855       6.86716861       7.40691646  T       0.00000000       0.00000000       0.00000000
Pd       1.37526416       6.86560907       7.41464608  T       0.00000000       0.00000000       0.00000000
Pd       9.62793843       4.11563691       7.43888872  T       0.00000000       0.00000000       0.00000000
Pd       6.86717584       4.12239934       7.41287667  T       0.00000000       0.00000000       0.00000000
Pd       4.11006096       4.11714715       7.41585118  T       0.00000000       0.00000000       0.00000000
Pd       1.35554236       4.10814847       7.44026388  T       0.00000000       0.00000000       0.00000000
Pd       9.63681349       1.38416169       7.44789604  T       0.00000000       0.00000000       0.00000000
Pd       6.88368408       6.87460347       7.41581564  T       0.00000000       0.00000000       0.00000000
Pd       6.86978676       1.36997583       7.41378253  T       0.00000000       0.00000000       0.00000000
Pd       1.35574475       1.37924016       7.44348898  T       0.00000000       0.00000000       0.00000000
Pd       8.26071371       8.25197574       5.43428921  T       0.00000000       0.00000000       0.00000000
Pd       5.50843028       8.24972421       5.42982617  T       0.00000000       0.00000000       0.00000000
Pd       2.75197699       8.24933416       5.43257674  T       0.00000000       0.00000000       0.00000000
Pd       0.00156355       8.25123143       5.43321612  T       0.00000000       0.00000000       0.00000000
Pd       8.25387496       5.49958528       5.43156570  T       0.00000000       0.00000000       0.00000000
Pd       5.50155821       5.49709255       5.42784774  T       0.00000000       0.00000000       0.00000000
Pd       4.11007278       1.36756350       7.41911531  T       0.00000000       0.00000000       0.00000000
Pd       2.74631234       5.49470014       5.43063490  T       0.00000000       0.00000000       0.00000000
Pd       9.63352529       6.87072905       7.42294859  T       0.00000000       0.00000000       0.00000000
Pd       4.13535592       9.62432987       7.40605838  T       0.00000000       0.00000000       0.00000000
Pd       2.77094738       8.24027768       9.40038689  T       0.00000000       0.00000000       0.00000000
Pd       0.01845552       8.24497333       9.41767436  T       0.00000000       0.00000000       0.00000000
Pd       8.23260360       5.50594083       9.41507362  T       0.00000000       0.00000000       0.00000000
Pd       5.49645444       5.49338472       9.40861222  T       0.00000000       0.00000000       0.00000000
Pd       2.75574277       5.50301399       9.39950171  T       0.00000000       0.00000000       0.00000000
Pd      -0.00775593       5.51370892       9.41919318  T       0.00000000       0.00000000       0.00000000
Pd       8.20405797       2.74933524       9.41172860  T       0.00000000       0.00000000       0.00000000
Pd       1.37744196       9.62747645       7.41457153  T       0.00000000       0.00000000       0.00000000
Pd       5.48667235       2.73992754       9.40524295  T       0.00000000       0.00000000       0.00000000
Pd      -0.04939859       2.73998509       9.51021019  T       0.00000000       0.00000000       0.00000000
Pd       8.23784361      -0.00943038       9.41330960  T       0.00000000       0.00000000       0.00000000
Pd       5.49993533      -0.01162777       9.41064185  T       0.00000000       0.00000000       0.00000000
Pd       2.76035643      -0.03237428       9.40371231  T       0.00000000       0.00000000       0.00000000
Pd      -0.00078388      -0.03219834       9.42304438  T       0.00000000       0.00000000       0.00000000
Pd       9.63558256       9.62966831       7.42366804  T       0.00000000       0.00000000       0.00000000
Pd       6.88428790       9.62180807       7.41651588  T       0.00000000       0.00000000       0.00000000
Pd       2.75432641       2.72817283       9.45011505  T       0.00000000       0.00000000       0.00000000
Pd      -0.00582612       5.49355763       5.43432475  T       0.00000000       0.00000000       0.00000000
Pd       8.25687502       2.74796537       5.43867720  T       0.00000000       0.00000000       0.00000000
Pd       5.49313894       2.74727634       5.42983710  T       0.00000000       0.00000000       0.00000000
Pd       1.37558630       1.37558630       3.44537281  F       0.00000000       0.00000000       0.00000000
Pd       8.25351783       8.25351783       1.50000000  F       0.00000000       0.00000000       0.00000000
Pd       5.50234522       8.25351783       1.50000000  F       0.00000000       0.00000000       0.00000000
Pd       2.75117261       8.25351783       1.50000000  F       0.00000000       0.00000000       0.00000000
Pd       0.00000000       8.25351783       1.50000000  F       0.00000000       0.00000000       0.00000000
Pd       8.25351783       5.50234522       1.50000000  F       0.00000000       0.00000000       0.00000000
Pd       5.50234522       5.50234522       1.50000000  F       0.00000000       0.00000000       0.00000000
Pd       4.12675891       1.37558630       3.44537281  F       0.00000000       0.00000000       0.00000000
Pd       2.75117261       5.50234522       1.50000000  F       0.00000000       0.00000000       0.00000000
Pd       8.25351783       2.75117261       1.50000000  F       0.00000000       0.00000000       0.00000000
Pd       5.50234522       2.75117261       1.50000000  F       0.00000000       0.00000000       0.00000000
Pd       2.75117261       2.75117261       1.50000000  F       0.00000000       0.00000000       0.00000000
Pd       0.00000000       2.75117261       1.50000000  F       0.00000000       0.00000000       0.00000000
Pd       8.25351783       0.00000000       1.50000000  F       0.00000000       0.00000000       0.00000000
Pd       5.50234522       0.00000000       1.50000000  F       0.00000000       0.00000000       0.00000000
Pd       2.75117261       0.00000000       1.50000000  F       0.00000000       0.00000000       0.00000000
Pd       0.00000000       5.50234522       1.50000000  F       0.00000000       0.00000000       0.00000000
Pd       6.87793152       1.37558630       3.44537281  F       0.00000000       0.00000000       0.00000000
Pd       9.62910413       1.37558630       3.44537281  F       0.00000000       0.00000000       0.00000000
Pd       1.37558630       4.12675891       3.44537281  F       0.00000000       0.00000000       0.00000000
Pd       2.73500234       2.74696013       5.43090753  T       0.00000000       0.00000000       0.00000000
Pd      -0.00691100       2.74745319       5.44022810  T       0.00000000       0.00000000       0.00000000
Pd       8.25630890      -0.00072690       5.43504959  T       0.00000000       0.00000000       0.00000000
Pd       5.50281705      -0.00048546       5.42802524  T       0.00000000       0.00000000       0.00000000
Pd       2.74721562       0.00049549       5.42941611  T       0.00000000       0.00000000       0.00000000
Pd      -0.00542838       0.00373724       5.43620394  T       0.00000000       0.00000000       0.00000000
Pd       9.62910413       9.62910413       3.44537281  F       0.00000000       0.00000000       0.00000000
Pd       6.87793152       9.62910413       3.44537281  F       0.00000000       0.00000000       0.00000000
Pd       4.12675891       9.62910413       3.44537281  F       0.00000000       0.00000000       0.00000000
Pd       1.37558630       9.62910413       3.44537281  F       0.00000000       0.00000000       0.00000000
Pd       9.62910413       6.87793152       3.44537281  F       0.00000000       0.00000000       0.00000000
Pd       6.87793152       6.87793152       3.44537281  F       0.00000000       0.00000000       0.00000000
Pd       4.12675891       6.87793152       3.44537281  F       0.00000000       0.00000000       0.00000000
Pd       1.37558630       6.87793152       3.44537281  F       0.00000000       0.00000000       0.00000000
Pd       9.62910413       4.12675891       3.44537281  F       0.00000000       0.00000000       0.00000000
Pd       6.87793152       4.12675891       3.44537281  F       0.00000000       0.00000000       0.00000000
Pd       4.12675891       4.12675891       3.44537281  F       0.00000000       0.00000000       0.00000000
Pd       5.51532538       8.24535120       9.40896763  T       0.00000000       0.00000000       0.00000000
Pd       8.26714697       8.24975031       9.41671949  T       0.00000000       0.00000000       0.00000000
O        0.14903739       2.87848741      11.48289364  T       0.00000000       0.00000000       0.00000000
C        1.41711522       3.16178626      11.98920079  T       0.00000000       0.00000000       0.00000000
H        1.49572931       2.73126026      13.00879162  T       0.00000000       0.00000000       0.00000000
H        2.27925266       2.66412453      11.40428516  T       0.00000000       0.00000000       0.00000000
H        1.65123307       4.24863912      12.00983923  T       0.00000000       0.00000000       0.00000000
