85
Lattice="11.004690437655821 0.0 0.0 0.0 11.004690437655821 0.0 0.0 0.0 27.781491233325184" Properties=species:S:1:pos:R:3:move_mask:L:1:momenta:R:3 adsorbate_info="_JSON {\"site\": {\"coordinates\": [8.253517828241865, 9.629104132948843, 9.281491233325172], \"connectivity\": 2, \"topology\": [31, 79], \"n_vector\": [0.005129147720715368, 0.004911071354111105, 0.9999747862930414], \"h_vector\": [0.0, 1.0, 0.0], \"site_formula\": {\"Pd\": 2}}, \"smiles\": \"ClOC\", \"mdf\": 2.0952679171420927, \"adsorbate_formula\": \"CH3O\"}" mace_E=-415.63084846163764 converged=T n_steps=71 d_min=1.9826993416113676 site_type=unknown dE_rel_meV=0 original_idx=275 rank=331 E_MACE=-415.60141841208264 pbc="T T T"
Pd       0.00000000       0.00000000       1.50000000  F       0.00000000       0.00000000       0.00000000
Pd       4.11721692       6.88480552       7.41808708  T       0.00000000       0.00000000       0.00000000
Pd       1.36844690       6.88537932       7.41921699  T       0.00000000       0.00000000       0.00000000
Pd       9.62505401       4.14439892       7.41943009  T       0.00000000       0.00000000       0.00000000
Pd       6.87480318       4.14343852       7.41942856  T       0.00000000       0.00000000       0.00000000
Pd       4.12164373       4.13609727       7.41133245  T       0.00000000       0.00000000       0.00000000
Pd       1.37259430       4.13728739       7.41193424  T       0.00000000       0.00000000       0.00000000
Pd       9.61197693       1.38112095       7.44511073  T       0.00000000       0.00000000       0.00000000
Pd       6.87052992       6.90564421       7.42179851  T       0.00000000       0.00000000       0.00000000
Pd       6.89268159       1.38100379       7.44768269  T       0.00000000       0.00000000       0.00000000
Pd       1.36766876       1.38343677       7.41120337  T       0.00000000       0.00000000       0.00000000
Pd       8.24970990       8.27308807       5.43378996  T       0.00000000       0.00000000       0.00000000
Pd       5.49987743       8.26274666       5.43308629  T       0.00000000       0.00000000       0.00000000
Pd       2.74740490       8.25812088       5.43163849  T       0.00000000       0.00000000       0.00000000
Pd      -0.00520714       8.26260871       5.43306141  T       0.00000000       0.00000000       0.00000000
Pd       8.25063253       5.51513513       5.43473337  T       0.00000000       0.00000000       0.00000000
Pd       5.50044504       5.51058783       5.43152349  T       0.00000000       0.00000000       0.00000000
Pd       4.13314527       1.38236575       7.41280100  T       0.00000000       0.00000000       0.00000000
Pd       2.74806803       5.50733388       5.42842334  T       0.00000000       0.00000000       0.00000000
Pd       9.62042747       6.90588566       7.42308625  T       0.00000000       0.00000000       0.00000000
Pd       4.12595842       9.63744337       7.41694576  T       0.00000000       0.00000000       0.00000000
Pd       2.73930425       8.25898508       9.41260541  T       0.00000000       0.00000000       0.00000000
Pd      -0.00393911       8.26656981       9.41521297  T       0.00000000       0.00000000       0.00000000
Pd       8.24454176       5.53366934       9.41304694  T       0.00000000       0.00000000       0.00000000
Pd       5.49512200       5.51983365       9.41033785  T       0.00000000       0.00000000       0.00000000
Pd       2.74261377       5.50306763       9.41206052  T       0.00000000       0.00000000       0.00000000
Pd      -0.01019943       5.52030658       9.41276566  T       0.00000000       0.00000000       0.00000000
Pd       8.25283795       2.81534384       9.42037585  T       0.00000000       0.00000000       0.00000000
Pd       1.36640413       9.63686217       7.41677434  T       0.00000000       0.00000000       0.00000000
Pd       5.49230625       2.77485781       9.41026003  T       0.00000000       0.00000000       0.00000000
Pd       0.00550646       2.77364537       9.40988170  T       0.00000000       0.00000000       0.00000000
Pd       8.26290705       0.05843324       9.52340719  T       0.00000000       0.00000000       0.00000000
Pd       5.48336850       0.01733468       9.41896558  T       0.00000000       0.00000000       0.00000000
Pd       2.74921408       0.00659943       9.40301894  T       0.00000000       0.00000000       0.00000000
Pd       0.01896221       0.01887050       9.41583049  T       0.00000000       0.00000000       0.00000000
Pd       9.61232482       9.65703553       7.44479944  T       0.00000000       0.00000000       0.00000000
Pd       6.88429722       9.65833693       7.44448184  T       0.00000000       0.00000000       0.00000000
Pd       2.74912677       2.75372829       9.40099635  T       0.00000000       0.00000000       0.00000000
Pd      -0.00407316       5.51101501       5.43137218  T       0.00000000       0.00000000       0.00000000
Pd       8.25212434       2.75706494       5.43992627  T       0.00000000       0.00000000       0.00000000
Pd       5.50508529       2.75598954       5.43260403  T       0.00000000       0.00000000       0.00000000
Pd       1.37558630       1.37558630       3.44537281  F       0.00000000       0.00000000       0.00000000
Pd       8.25351783       8.25351783       1.50000000  F       0.00000000       0.00000000       0.00000000
Pd       5.50234522       8.25351783       1.50000000  F       0.00000000       0.00000000       0.00000000
Pd       2.75117261       8.25351783       1.50000000  F       0.00000000       0.00000000       0.00000000
Pd       0.00000000       8.25351783       1.50000000  F       0.00000000       0.00000000       0.00000000
Pd       8.25351783       5.50234522       1.50000000  F       0.00000000       0.00000000       0.00000000
Pd       5.50234522       5.50234522       1.50000000  F       0.00000000       0.00000000       0.00000000
Pd       4.12675891       1.37558630       3.44537281  F       0.00000000       0.00000000       0.00000000
Pd       2.75117261       5.50234522       1.50000000  F       0.00000000       0.00000000       0.00000000
Pd       8.25351783       2.75117261       1.50000000  F       0.00000000       0.00000000       0.00000000
Pd       5.50234522       2.75117261       1.50000000  F       0.00000000       0.00000000       0.00000000
Pd       2.75117261       2.75117261       1.50000000  F       0.00000000       0.00000000       0.00000000
Pd       0.00000000       2.75117261       1.50000000  F       0.00000000       0.00000000       0.00000000
Pd       8.25351783       0.00000000       1.50000000  F       0.00000000       0.00000000       0.00000000
Pd       5.50234522       0.00000000       1.50000000  F       0.00000000       0.00000000       0.00000000
Pd       2.75117261       0.00000000       1.50000000  F       0.00000000       0.00000000       0.00000000
Pd       0.00000000       5.50234522       1.50000000  F       0.00000000       0.00000000       0.00000000
Pd       6.87793152       1.37558630       3.44537281  F       0.00000000       0.00000000       0.00000000
Pd       9.62910413       1.37558630       3.44537281  F       0.00000000       0.00000000       0.00000000
Pd       1.37558630       4.12675891       3.44537281  F       0.00000000       0.00000000       0.00000000
Pd       2.75025204       2.75143837       5.43080068  T       0.00000000       0.00000000       0.00000000
Pd      -0.00496996       2.75695767       5.43220739  T       0.00000000       0.00000000       0.00000000
Pd       8.25172633       0.01308350       5.43570672  T       0.00000000       0.00000000       0.00000000
Pd       5.50851608       0.00820705       5.43670190  T       0.00000000       0.00000000       0.00000000
Pd       2.74985200       0.00182793       5.43286212  T       0.00000000       0.00000000       0.00000000
Pd      -0.00927526       0.00820784       5.43642727  T       0.00000000       0.00000000       0.00000000
Pd       9.62910413       9.62910413       3.44537281  F       0.00000000       0.00000000       0.00000000
Pd       6.87793152       9.62910413       3.44537281  F       0.00000000       0.00000000       0.00000000
Pd       4.12675891       9.62910413       3.44537281  F       0.00000000       0.00000000       0.00000000
Pd       1.37558630       9.62910413       3.44537281  F       0.00000000       0.00000000       0.00000000
Pd       9.62910413       6.87793152       3.44537281  F       0.00000000       0.00000000       0.00000000
Pd       6.87793152       6.87793152       3.44537281  F       0.00000000       0.00000000       0.00000000
Pd       4.12675891       6.87793152       3.44537281  F       0.00000000       0.00000000       0.00000000
Pd       1.37558630       6.87793152       3.44537281  F       0.00000000       0.00000000       0.00000000
Pd       9.62910413       4.12675891       3.44537281  F       0.00000000       0.00000000       0.00000000
Pd       6.87793152       4.12675891       3.44537281  F       0.00000000       0.00000000       0.00000000
Pd       4.12675891       4.12675891       3.44537281  F       0.00000000       0.00000000       0.00000000
Pd       5.47613210       8.26359325       9.41417357  T       0.00000000       0.00000000       0.00000000
Pd       8.23089209       8.25757269       9.44997839  T       0.00000000       0.00000000       0.00000000
O        8.22583673      10.87730426      11.49830279  T       0.00000000       0.00000000       0.00000000
C        8.48693325       9.61885456      12.04462644  T       0.00000000       0.00000000       0.00000000
H        7.95685917       9.53141113      13.01541574  T       0.00000000       0.00000000       0.00000000
H        8.07957117       8.74492870      11.41309794  T       0.00000000       0.00000000       0.00000000
H        9.57040277       9.42105414      12.18783029  T       0.00000000       0.00000000       0.00000000
