85
Lattice="11.004690437655821 0.0 0.0 0.0 11.004690437655821 0.0 0.0 0.0 27.781491233325184" Properties=species:S:1:pos:R:3:move_mask:L:1:momenta:R:3 adsorbate_info="_JSON {\"site\": {\"coordinates\": [3.6682301458852735, 1.8341150729426368, 9.281491233325172], \"connectivity\": 3, \"topology\": [29, 33, 37], \"n_vector\": [0.06665482420454114, -0.0675424547374032, 0.9954873938018038], \"h_vector\": [0.0, 1.0, 0.0], \"site_formula\": {\"Pd\": 3}}, \"smiles\": \"ClOC\", \"mdf\": 2.1954240815361428, \"adsorbate_formula\": \"CH3O\"}" mace_E=-415.8708038155878 converged=T n_steps=60 d_min=2.11132150650871 site_type=unknown dE_rel_meV=0 original_idx=111 rank=6 E_MACE=-415.87151069416814 pbc="T T T"
Pd       0.00000000       0.00000000       1.50000000  F       0.00000000       0.00000000       0.00000000
Pd       4.10169145       6.86957904       7.40815541  T       0.00000000       0.00000000       0.00000000
Pd       1.34867456       6.86455227       7.41316522  T       0.00000000       0.00000000       0.00000000
Pd       9.60572510       4.12341233       7.42054509  T       0.00000000       0.00000000       0.00000000
Pd       6.84741921       4.11096956       7.44233545  T       0.00000000       0.00000000       0.00000000
Pd       4.10713598       4.11634238       7.42405431  T       0.00000000       0.00000000       0.00000000
Pd       1.36406623       4.10546950       7.43637697  T       0.00000000       0.00000000       0.00000000
Pd       9.60788371       1.37326664       7.41620169  T       0.00000000       0.00000000       0.00000000
Pd       6.85495715       6.87124248       7.41414413  T       0.00000000       0.00000000       0.00000000
Pd       6.85216626       1.38582129       7.43792600  T       0.00000000       0.00000000       0.00000000
Pd       1.36306716       1.37957183       7.43469058  T       0.00000000       0.00000000       0.00000000
Pd       8.23975126       8.25094475       5.43029768  T       0.00000000       0.00000000       0.00000000
Pd       5.49062435       8.24943335       5.42728791  T       0.00000000       0.00000000       0.00000000
Pd       2.73526010       8.24717720       5.42647181  T       0.00000000       0.00000000       0.00000000
Pd      -0.01347634       8.24938028       5.43041088  T       0.00000000       0.00000000       0.00000000
Pd       8.24000396       5.49719595       5.43486194  T       0.00000000       0.00000000       0.00000000
Pd       5.49462560       5.49309020       5.43205553  T       0.00000000       0.00000000       0.00000000
Pd       4.10700993       1.37282570       7.42706920  T       0.00000000       0.00000000       0.00000000
Pd       2.73593563       5.49162606       5.43004420  T       0.00000000       0.00000000       0.00000000
Pd       9.60370667       6.87458759       7.41876622  T       0.00000000       0.00000000       0.00000000
Pd       4.10175515       9.61737620       7.40515378  T       0.00000000       0.00000000       0.00000000
Pd       2.71809427       8.23713271       9.40727882  T       0.00000000       0.00000000       0.00000000
Pd      -0.03487581       8.24597001       9.41032647  T       0.00000000       0.00000000       0.00000000
Pd       8.22379068       5.50435147       9.41539595  T       0.00000000       0.00000000       0.00000000
Pd       5.47634243       5.52552283       9.40373778  T       0.00000000       0.00000000       0.00000000
Pd       2.71544040       5.51158364       9.39943664  T       0.00000000       0.00000000       0.00000000
Pd      -0.03378023       5.49727743       9.41027315  T       0.00000000       0.00000000       0.00000000
Pd       8.25613122       2.74892953       9.42613971  T       0.00000000       0.00000000       0.00000000
Pd       1.34860329       9.62197192       7.41266889  T       0.00000000       0.00000000       0.00000000
Pd       5.54003300       2.74564561       9.48017791  T       0.00000000       0.00000000       0.00000000
Pd      -0.04592209       2.74278915       9.41243775  T       0.00000000       0.00000000       0.00000000
Pd       8.22938276      -0.00596108       9.41181336  T       0.00000000       0.00000000       0.00000000
Pd       5.47861077      -0.02628794       9.39806262  T       0.00000000       0.00000000       0.00000000
Pd       2.71783614      -0.03731249       9.40114776  T       0.00000000       0.00000000       0.00000000
Pd      -0.03217162      -0.01171092       9.40699836  T       0.00000000       0.00000000       0.00000000
Pd       9.60398300       9.62665577       7.41212900  T       0.00000000       0.00000000       0.00000000
Pd       6.85625925       9.63255414       7.41081021  T       0.00000000       0.00000000       0.00000000
Pd       2.67131351       2.73961382       9.46465789  T       0.00000000       0.00000000       0.00000000
Pd      -0.01355057       5.49728912       5.43248211  T       0.00000000       0.00000000       0.00000000
Pd       8.23854869       2.75193943       5.43612283  T       0.00000000       0.00000000       0.00000000
Pd       5.49124478       2.74882492       5.43292722  T       0.00000000       0.00000000       0.00000000
Pd       1.37558630       1.37558630       3.44537281  F       0.00000000       0.00000000       0.00000000
Pd       8.25351783       8.25351783       1.50000000  F       0.00000000       0.00000000       0.00000000
Pd       5.50234522       8.25351783       1.50000000  F       0.00000000       0.00000000       0.00000000
Pd       2.75117261       8.25351783       1.50000000  F       0.00000000       0.00000000       0.00000000
Pd       0.00000000       8.25351783       1.50000000  F       0.00000000       0.00000000       0.00000000
Pd       8.25351783       5.50234522       1.50000000  F       0.00000000       0.00000000       0.00000000
Pd       5.50234522       5.50234522       1.50000000  F       0.00000000       0.00000000       0.00000000
Pd       4.12675891       1.37558630       3.44537281  F       0.00000000       0.00000000       0.00000000
Pd       2.75117261       5.50234522       1.50000000  F       0.00000000       0.00000000       0.00000000
Pd       8.25351783       2.75117261       1.50000000  F       0.00000000       0.00000000       0.00000000
Pd       5.50234522       2.75117261       1.50000000  F       0.00000000       0.00000000       0.00000000
Pd       2.75117261       2.75117261       1.50000000  F       0.00000000       0.00000000       0.00000000
Pd       0.00000000       2.75117261       1.50000000  F       0.00000000       0.00000000       0.00000000
Pd       8.25351783       0.00000000       1.50000000  F       0.00000000       0.00000000       0.00000000
Pd       5.50234522       0.00000000       1.50000000  F       0.00000000       0.00000000       0.00000000
Pd       2.75117261       0.00000000       1.50000000  F       0.00000000       0.00000000       0.00000000
Pd       0.00000000       5.50234522       1.50000000  F       0.00000000       0.00000000       0.00000000
Pd       6.87793152       1.37558630       3.44537281  F       0.00000000       0.00000000       0.00000000
Pd       9.62910413       1.37558630       3.44537281  F       0.00000000       0.00000000       0.00000000
Pd       1.37558630       4.12675891       3.44537281  F       0.00000000       0.00000000       0.00000000
Pd       2.74421810       2.74653022       5.42991184  T       0.00000000       0.00000000       0.00000000
Pd      -0.00655409       2.75045895       5.43426552  T       0.00000000       0.00000000       0.00000000
Pd       8.24010495       0.00278522       5.43084837  T       0.00000000       0.00000000       0.00000000
Pd       5.49211548       0.00345269       5.43078812  T       0.00000000       0.00000000       0.00000000
Pd       2.73724278      -0.00006814       5.43207319  T       0.00000000       0.00000000       0.00000000
Pd      -0.01027465      -0.00018590       5.43044034  T       0.00000000       0.00000000       0.00000000
Pd       9.62910413       9.62910413       3.44537281  F       0.00000000       0.00000000       0.00000000
Pd       6.87793152       9.62910413       3.44537281  F       0.00000000       0.00000000       0.00000000
Pd       4.12675891       9.62910413       3.44537281  F       0.00000000       0.00000000       0.00000000
Pd       1.37558630       9.62910413       3.44537281  F       0.00000000       0.00000000       0.00000000
Pd       9.62910413       6.87793152       3.44537281  F       0.00000000       0.00000000       0.00000000
Pd       6.87793152       6.87793152       3.44537281  F       0.00000000       0.00000000       0.00000000
Pd       4.12675891       6.87793152       3.44537281  F       0.00000000       0.00000000       0.00000000
Pd       1.37558630       6.87793152       3.44537281  F       0.00000000       0.00000000       0.00000000
Pd       9.62910413       4.12675891       3.44537281  F       0.00000000       0.00000000       0.00000000
Pd       6.87793152       4.12675891       3.44537281  F       0.00000000       0.00000000       0.00000000
Pd       4.12675891       4.12675891       3.44537281  F       0.00000000       0.00000000       0.00000000
Pd       5.47108075       8.25364656       9.40225229  T       0.00000000       0.00000000       0.00000000
Pd       8.21915315       8.25427704       9.40962686  T       0.00000000       0.00000000       0.00000000
O        4.09380947       2.78238191      11.01334928  T       0.00000000       0.00000000       0.00000000
C        4.06830098       1.73197633      11.98318846  T       0.00000000       0.00000000       0.00000000
H        4.98564104       1.77601898      12.60013684  T       0.00000000       0.00000000       0.00000000
H        3.18188143       1.86772912      12.62990233  T       0.00000000       0.00000000       0.00000000
H        4.01006248       0.72441212      11.50403021  T       0.00000000       0.00000000       0.00000000
