85
Lattice="11.004690437655821 0.0 0.0 0.0 11.004690437655821 0.0 0.0 0.0 27.781491233325184" Properties=species:S:1:pos:R:3:move_mask:L:1:momenta:R:3 adsorbate_info="_JSON {\"site\": {\"coordinates\": [7.336460291770547, 9.170575364713184, 9.281491233325172], \"connectivity\": 3, \"topology\": [31, 78, 79], \"n_vector\": [-0.06842997744003917, 0.0657670900375602, 0.9954858251404423], \"h_vector\": [1.0, 0.0, 0.0], \"site_formula\": {\"Pd\": 3}}, \"smiles\": \"ClOC\", \"mdf\": 2.0200740812040676, \"adsorbate_formula\": \"CH3O\"}" mace_E=-415.8403434596871 converged=T n_steps=47 d_min=2.104965643786234 site_type=unknown dE_rel_meV=0 original_idx=248 rank=5 E_MACE=-415.87153653330836 pbc="T T T"
Pd       0.00000000       0.00000000       1.50000000  F       0.00000000       0.00000000       0.00000000
Pd       4.14144467       6.91816842       7.44164382  T       0.00000000       0.00000000       0.00000000
Pd       1.37603039       6.89577174       7.41210827  T       0.00000000       0.00000000       0.00000000
Pd       9.64603555       4.14330468       7.41352519  T       0.00000000       0.00000000       0.00000000
Pd       6.89166303       4.14676585       7.40308837  T       0.00000000       0.00000000       0.00000000
Pd       4.13658304       4.15998425       7.40941156  T       0.00000000       0.00000000       0.00000000
Pd       1.38751679       4.14615039       7.41392321  T       0.00000000       0.00000000       0.00000000
Pd       9.64594172       1.37944724       7.41040740  T       0.00000000       0.00000000       0.00000000
Pd       6.87849376       6.89531397       7.42749780  T       0.00000000       0.00000000       0.00000000
Pd       6.88883758       1.38886638       7.40262002  T       0.00000000       0.00000000       0.00000000
Pd       1.38848395       1.39568310       7.41474226  T       0.00000000       0.00000000       0.00000000
Pd       8.24995672       8.25764568       5.43203004  T       0.00000000       0.00000000       0.00000000
Pd       5.50560388       8.26377961       5.43203016  T       0.00000000       0.00000000       0.00000000
Pd       2.75606920       8.26462733       5.43528845  T       0.00000000       0.00000000       0.00000000
Pd      -0.00667992       8.25864759       5.43740596  T       0.00000000       0.00000000       0.00000000
Pd       8.26211279       5.51362901       5.43278316  T       0.00000000       0.00000000       0.00000000
Pd       5.50317631       5.51970358       5.43201928  T       0.00000000       0.00000000       0.00000000
Pd       4.13559959       1.39579448       7.40776056  T       0.00000000       0.00000000       0.00000000
Pd       2.75663166       5.51876176       5.43192670  T       0.00000000       0.00000000       0.00000000
Pd       9.61547821       6.89786314       7.44774167  T       0.00000000       0.00000000       0.00000000
Pd       4.13513383       9.64313637       7.43151683  T       0.00000000       0.00000000       0.00000000
Pd       2.71666354       8.28916127       9.41023877  T       0.00000000       0.00000000       0.00000000
Pd       0.01457944       8.26839845       9.41165093  T       0.00000000       0.00000000       0.00000000
Pd       8.26810219       5.48055374       9.41054078  T       0.00000000       0.00000000       0.00000000
Pd       5.50678683       5.50220352       9.40393106  T       0.00000000       0.00000000       0.00000000
Pd       2.75651915       5.53584175       9.41016965  T       0.00000000       0.00000000       0.00000000
Pd       0.01753358       5.51471621       9.41280843  T       0.00000000       0.00000000       0.00000000
Pd       8.27201245       2.76095208       9.39591409  T       0.00000000       0.00000000       0.00000000
Pd       1.37498604       9.64918939       7.41005157  T       0.00000000       0.00000000       0.00000000
Pd       5.52499662       2.78112841       9.39481851  T       0.00000000       0.00000000       0.00000000
Pd       0.01764696       2.76433132       9.40748849  T       0.00000000       0.00000000       0.00000000
Pd       8.27212288       0.03323663       9.40839650  T       0.00000000       0.00000000       0.00000000
Pd       5.49785330       0.05496775       9.40278934  T       0.00000000       0.00000000       0.00000000
Pd       2.75278491       0.03611232       9.40892455  T       0.00000000       0.00000000       0.00000000
Pd       0.01624649       0.01305893       9.40482887  T       0.00000000       0.00000000       0.00000000
Pd       9.61736229       9.62532016       7.43563949  T       0.00000000       0.00000000       0.00000000
Pd       6.87549792       9.63786306       7.43230106  T       0.00000000       0.00000000       0.00000000
Pd       2.77355457       2.78520698       9.40665775  T       0.00000000       0.00000000       0.00000000
Pd       0.00244151       5.51209332       5.43395095  T       0.00000000       0.00000000       0.00000000
Pd       8.26307336       2.75660110       5.42763912  T       0.00000000       0.00000000       0.00000000
Pd       5.50911316       2.76331047       5.42743336  T       0.00000000       0.00000000       0.00000000
Pd       1.37558630       1.37558630       3.44537281  F       0.00000000       0.00000000       0.00000000
Pd       8.25351783       8.25351783       1.50000000  F       0.00000000       0.00000000       0.00000000
Pd       5.50234522       8.25351783       1.50000000  F       0.00000000       0.00000000       0.00000000
Pd       2.75117261       8.25351783       1.50000000  F       0.00000000       0.00000000       0.00000000
Pd       0.00000000       8.25351783       1.50000000  F       0.00000000       0.00000000       0.00000000
Pd       8.25351783       5.50234522       1.50000000  F       0.00000000       0.00000000       0.00000000
Pd       5.50234522       5.50234522       1.50000000  F       0.00000000       0.00000000       0.00000000
Pd       4.12675891       1.37558630       3.44537281  F       0.00000000       0.00000000       0.00000000
Pd       2.75117261       5.50234522       1.50000000  F       0.00000000       0.00000000       0.00000000
Pd       8.25351783       2.75117261       1.50000000  F       0.00000000       0.00000000       0.00000000
Pd       5.50234522       2.75117261       1.50000000  F       0.00000000       0.00000000       0.00000000
Pd       2.75117261       2.75117261       1.50000000  F       0.00000000       0.00000000       0.00000000
Pd       0.00000000       2.75117261       1.50000000  F       0.00000000       0.00000000       0.00000000
Pd       8.25351783       0.00000000       1.50000000  F       0.00000000       0.00000000       0.00000000
Pd       5.50234522       0.00000000       1.50000000  F       0.00000000       0.00000000       0.00000000
Pd       2.75117261       0.00000000       1.50000000  F       0.00000000       0.00000000       0.00000000
Pd       0.00000000       5.50234522       1.50000000  F       0.00000000       0.00000000       0.00000000
Pd       6.87793152       1.37558630       3.44537281  F       0.00000000       0.00000000       0.00000000
Pd       9.62910413       1.37558630       3.44537281  F       0.00000000       0.00000000       0.00000000
Pd       1.37558630       4.12675891       3.44537281  F       0.00000000       0.00000000       0.00000000
Pd       2.75906102       2.76423193       5.43100768  T       0.00000000       0.00000000       0.00000000
Pd       0.00758123       2.75850101       5.43065188  T       0.00000000       0.00000000       0.00000000
Pd       8.25871319      -0.00081899       5.43035328  T       0.00000000       0.00000000       0.00000000
Pd       5.50401901       0.00523529       5.43080228  T       0.00000000       0.00000000       0.00000000
Pd       2.75528709       0.01016406       5.43019346  T       0.00000000       0.00000000       0.00000000
Pd       0.00057031       0.00269651       5.43183583  T       0.00000000       0.00000000       0.00000000
Pd       9.62910413       9.62910413       3.44537281  F       0.00000000       0.00000000       0.00000000
Pd       6.87793152       9.62910413       3.44537281  F       0.00000000       0.00000000       0.00000000
Pd       4.12675891       9.62910413       3.44537281  F       0.00000000       0.00000000       0.00000000
Pd       1.37558630       9.62910413       3.44537281  F       0.00000000       0.00000000       0.00000000
Pd       9.62910413       6.87793152       3.44537281  F       0.00000000       0.00000000       0.00000000
Pd       6.87793152       6.87793152       3.44537281  F       0.00000000       0.00000000       0.00000000
Pd       4.12675891       6.87793152       3.44537281  F       0.00000000       0.00000000       0.00000000
Pd       1.37558630       6.87793152       3.44537281  F       0.00000000       0.00000000       0.00000000
Pd       9.62910413       4.12675891       3.44537281  F       0.00000000       0.00000000       0.00000000
Pd       6.87793152       4.12675891       3.44537281  F       0.00000000       0.00000000       0.00000000
Pd       4.12675891       4.12675891       3.44537281  F       0.00000000       0.00000000       0.00000000
Pd       5.43587847       8.27887223       9.46852613  T       0.00000000       0.00000000       0.00000000
Pd       8.29933269       8.25636640       9.48247890  T       0.00000000       0.00000000       0.00000000
O        6.84747089       8.34306287      11.03125382  T       0.00000000       0.00000000       0.00000000
C        6.85000890       9.48384500      11.89330780  T       0.00000000       0.00000000       0.00000000
H        6.96297441       9.11846538      12.93066679  T       0.00000000       0.00000000       0.00000000
H        7.69387564      10.17481615      11.65462199  T       0.00000000       0.00000000       0.00000000
H        5.90513864      10.06299719      11.80479676  T       0.00000000       0.00000000       0.00000000
