85
Lattice="11.004690437655821 0.0 0.0 0.0 11.004690437655821 0.0 0.0 0.0 27.781491233325184" Properties=species:S:1:pos:R:3:move_mask:L:1:momenta:R:3 adsorbate_info="_JSON {\"site\": {\"coordinates\": [1.8341150729426368, 0.9170575364713184, 9.281491233325172], \"connectivity\": 3, \"topology\": [33, 34, 37], \"n_vector\": [-0.07137991470879497, 0.05195417048882868, 0.9960952122889573], \"h_vector\": [1.0, 0.0, 0.0], \"site_formula\": {\"Pd\": 3}}, \"smiles\": \"ClOC\", \"mdf\": 2.011884951189102, \"adsorbate_formula\": \"CH3O\"}" mace_E=-415.840799093578 converged=T n_steps=47 d_min=2.1059478648844774 site_type=unknown dE_rel_meV=0 original_idx=62 rank=2 E_MACE=-415.8718829277795 pbc="T T T"
Pd       0.00000000       0.00000000       1.50000000  F       0.00000000       0.00000000       0.00000000
Pd       4.14267757       6.89334562       7.41296478  T       0.00000000       0.00000000       0.00000000
Pd       1.38849874       6.89618278       7.40303248  T       0.00000000       0.00000000       0.00000000
Pd       9.63691219       4.14523864       7.40750623  T       0.00000000       0.00000000       0.00000000
Pd       6.89048352       4.14549737       7.41425342  T       0.00000000       0.00000000       0.00000000
Pd       4.14321140       4.13014665       7.40977996  T       0.00000000       0.00000000       0.00000000
Pd       1.38584156       4.13841294       7.40222947  T       0.00000000       0.00000000       0.00000000
Pd       9.63694851       1.38748134       7.43174229  T       0.00000000       0.00000000       0.00000000
Pd       6.88930735       6.89626983       7.41331106  T       0.00000000       0.00000000       0.00000000
Pd       6.87781448       1.39432464       7.41015103  T       0.00000000       0.00000000       0.00000000
Pd       1.37319265       1.38284603       7.43237692  T       0.00000000       0.00000000       0.00000000
Pd       8.25885002       8.26943357       5.43196822  T       0.00000000       0.00000000       0.00000000
Pd       5.50461541       8.26279526       5.43383578  T       0.00000000       0.00000000       0.00000000
Pd       2.75901103       8.26418134       5.43277174  T       0.00000000       0.00000000       0.00000000
Pd       0.00060510       8.26995517       5.43227970  T       0.00000000       0.00000000       0.00000000
Pd       8.26098323       5.51474281       5.43078920  T       0.00000000       0.00000000       0.00000000
Pd       5.50959606       5.50938478       5.43021999  T       0.00000000       0.00000000       0.00000000
Pd       4.11540196       1.37101449       7.43533297  T       0.00000000       0.00000000       0.00000000
Pd       2.76011284       5.50704950       5.42728850  T       0.00000000       0.00000000       0.00000000
Pd       9.63825044       6.90945111       7.40940712  T       0.00000000       0.00000000       0.00000000
Pd       4.11289263       9.64811862       7.44765865  T       0.00000000       0.00000000       0.00000000
Pd       2.76388983       8.23044889       9.41041400  T       0.00000000       0.00000000       0.00000000
Pd       0.00252536       8.25033989       9.40438551  T       0.00000000       0.00000000       0.00000000
Pd       8.27595061       5.53443942       9.40634411  T       0.00000000       0.00000000       0.00000000
Pd       5.51996325       5.51445000       9.40676188  T       0.00000000       0.00000000       0.00000000
Pd       2.76973890       5.51090961       9.39515944  T       0.00000000       0.00000000       0.00000000
Pd       0.02277483       5.52907610       9.39451293  T       0.00000000       0.00000000       0.00000000
Pd       8.25347532       2.78536027       9.40931426  T       0.00000000       0.00000000       0.00000000
Pd       1.37582443       9.64440842       7.42842770  T       0.00000000       0.00000000       0.00000000
Pd       5.51735076       2.76309609       9.40414943  T       0.00000000       0.00000000       0.00000000
Pd      -0.00672292       2.80333377       9.40194157  T       0.00000000       0.00000000       0.00000000
Pd       8.21970761       0.03366743       9.41079751  T       0.00000000       0.00000000       0.00000000
Pd       5.51720958       0.01370611       9.41105645  T       0.00000000       0.00000000       0.00000000
Pd       2.79738815       0.00144343       9.48261357  T       0.00000000       0.00000000       0.00000000
Pd      -0.06599244       0.02289350       9.46823476  T       0.00000000       0.00000000       0.00000000
Pd       9.64367167       9.66754207       7.44276250  T       0.00000000       0.00000000       0.00000000
Pd       6.87882919       9.64582074       7.41226601  T       0.00000000       0.00000000       0.00000000
Pd       2.76886863       2.78349675       9.40782235  T       0.00000000       0.00000000       0.00000000
Pd       0.00629160       5.51354103       5.42720884  T       0.00000000       0.00000000       0.00000000
Pd       8.25744269       2.76019931       5.42998963  T       0.00000000       0.00000000       0.00000000
Pd       5.50302122       2.75326973       5.43146477  T       0.00000000       0.00000000       0.00000000
Pd       1.37558630       1.37558630       3.44537281  F       0.00000000       0.00000000       0.00000000
Pd       8.25351783       8.25351783       1.50000000  F       0.00000000       0.00000000       0.00000000
Pd       5.50234522       8.25351783       1.50000000  F       0.00000000       0.00000000       0.00000000
Pd       2.75117261       8.25351783       1.50000000  F       0.00000000       0.00000000       0.00000000
Pd       0.00000000       8.25351783       1.50000000  F       0.00000000       0.00000000       0.00000000
Pd       8.25351783       5.50234522       1.50000000  F       0.00000000       0.00000000       0.00000000
Pd       5.50234522       5.50234522       1.50000000  F       0.00000000       0.00000000       0.00000000
Pd       4.12675891       1.37558630       3.44537281  F       0.00000000       0.00000000       0.00000000
Pd       2.75117261       5.50234522       1.50000000  F       0.00000000       0.00000000       0.00000000
Pd       8.25351783       2.75117261       1.50000000  F       0.00000000       0.00000000       0.00000000
Pd       5.50234522       2.75117261       1.50000000  F       0.00000000       0.00000000       0.00000000
Pd       2.75117261       2.75117261       1.50000000  F       0.00000000       0.00000000       0.00000000
Pd       0.00000000       2.75117261       1.50000000  F       0.00000000       0.00000000       0.00000000
Pd       8.25351783       0.00000000       1.50000000  F       0.00000000       0.00000000       0.00000000
Pd       5.50234522       0.00000000       1.50000000  F       0.00000000       0.00000000       0.00000000
Pd       2.75117261       0.00000000       1.50000000  F       0.00000000       0.00000000       0.00000000
Pd       0.00000000       5.50234522       1.50000000  F       0.00000000       0.00000000       0.00000000
Pd       6.87793152       1.37558630       3.44537281  F       0.00000000       0.00000000       0.00000000
Pd       9.62910413       1.37558630       3.44537281  F       0.00000000       0.00000000       0.00000000
Pd       1.37558630       4.12675891       3.44537281  F       0.00000000       0.00000000       0.00000000
Pd       2.75609952       2.74958442       5.42998182  T       0.00000000       0.00000000       0.00000000
Pd       0.00147989       2.75509765       5.43096626  T       0.00000000       0.00000000       0.00000000
Pd       8.25906527       0.01014456       5.43547457  T       0.00000000       0.00000000       0.00000000
Pd       5.49631907       0.00464510       5.43729840  T       0.00000000       0.00000000       0.00000000
Pd       2.74781732       0.00345136       5.43193261  T       0.00000000       0.00000000       0.00000000
Pd       0.00401134       0.00916148       5.43206092  T       0.00000000       0.00000000       0.00000000
Pd       9.62910413       9.62910413       3.44537281  F       0.00000000       0.00000000       0.00000000
Pd       6.87793152       9.62910413       3.44537281  F       0.00000000       0.00000000       0.00000000
Pd       4.12675891       9.62910413       3.44537281  F       0.00000000       0.00000000       0.00000000
Pd       1.37558630       9.62910413       3.44537281  F       0.00000000       0.00000000       0.00000000
Pd       9.62910413       6.87793152       3.44537281  F       0.00000000       0.00000000       0.00000000
Pd       6.87793152       6.87793152       3.44537281  F       0.00000000       0.00000000       0.00000000
Pd       4.12675891       6.87793152       3.44537281  F       0.00000000       0.00000000       0.00000000
Pd       1.37558630       6.87793152       3.44537281  F       0.00000000       0.00000000       0.00000000
Pd       9.62910413       4.12675891       3.44537281  F       0.00000000       0.00000000       0.00000000
Pd       6.87793152       4.12675891       3.44537281  F       0.00000000       0.00000000       0.00000000
Pd       4.12675891       4.12675891       3.44537281  F       0.00000000       0.00000000       0.00000000
Pd       5.51796582       8.26478146       9.41176855  T       0.00000000       0.00000000       0.00000000
Pd       8.25717936       8.28507685       9.41041409  T       0.00000000       0.00000000       0.00000000
O        1.34434296       0.09209965      11.03108994  T       0.00000000       0.00000000       0.00000000
C        1.34741757       1.23521653      11.89067328  T       0.00000000       0.00000000       0.00000000
H        1.46811750       0.87275330      12.92850498  T       0.00000000       0.00000000       0.00000000
H        2.18674029       1.93001410      11.64627726  T       0.00000000       0.00000000       0.00000000
H        0.39991145       1.81017966      11.80524850  T       0.00000000       0.00000000       0.00000000
