85
Lattice="11.004690437655821 0.0 0.0 0.0 11.004690437655821 0.0 0.0 0.0 27.781491233325184" Properties=species:S:1:pos:R:3:move_mask:L:1:momenta:R:3 adsorbate_info="_JSON {\"site\": {\"coordinates\": [6.419402755299228, 9.170575364713184, 9.281491233325172], \"connectivity\": 3, \"topology\": [32, 78, 79], \"n_vector\": [0.06622079799995209, 0.06577691711701134, 0.9956345730672632], \"h_vector\": [-1.0, 0.0, 0.0], \"site_formula\": {\"Pd\": 3}}, \"smiles\": \"ClOC\", \"mdf\": 2.1758116184690435, \"adsorbate_formula\": \"CH3O\"}" mace_E=-415.8705652655628 converged=T n_steps=65 d_min=2.107842662692687 site_type=unknown dE_rel_meV=0 original_idx=210 rank=0 E_MACE=-415.87339027332945 pbc="T T T"
Pd       0.00000000       0.00000000       1.50000000  F       0.00000000       0.00000000       0.00000000
Pd       4.11522978       6.89904504       7.43893679  T       0.00000000       0.00000000       0.00000000
Pd       1.35351087       6.87873906       7.41618104  T       0.00000000       0.00000000       0.00000000
Pd       9.60732665       4.13153559       7.41713583  T       0.00000000       0.00000000       0.00000000
Pd       6.85365962       4.13515330       7.40835551  T       0.00000000       0.00000000       0.00000000
Pd       4.09857189       4.13687049       7.41058925  T       0.00000000       0.00000000       0.00000000
Pd       1.34905823       4.12534103       7.41622044  T       0.00000000       0.00000000       0.00000000
Pd       9.61002010       1.37604405       7.41646458  T       0.00000000       0.00000000       0.00000000
Pd       6.85873762       6.89093141       7.42497604  T       0.00000000       0.00000000       0.00000000
Pd       6.85604870       1.38393683       7.41109175  T       0.00000000       0.00000000       0.00000000
Pd       1.35203153       1.37776485       7.41935615  T       0.00000000       0.00000000       0.00000000
Pd       8.23957606       8.25560335       5.43273886  T       0.00000000       0.00000000       0.00000000
Pd       5.49353484       8.25997082       5.43618186  T       0.00000000       0.00000000       0.00000000
Pd       2.74164512       8.25673815       5.43864093  T       0.00000000       0.00000000       0.00000000
Pd      -0.01753373       8.25330574       5.43681819  T       0.00000000       0.00000000       0.00000000
Pd       8.24460518       5.50940369       5.43284090  T       0.00000000       0.00000000       0.00000000
Pd       5.48806044       5.51095764       5.43284422  T       0.00000000       0.00000000       0.00000000
Pd       4.10293251       1.37852791       7.41651277  T       0.00000000       0.00000000       0.00000000
Pd       2.73768212       5.50762332       5.43266501  T       0.00000000       0.00000000       0.00000000
Pd       9.59822576       6.89477055       7.44440630  T       0.00000000       0.00000000       0.00000000
Pd       4.11541599       9.62419970       7.44068810  T       0.00000000       0.00000000       0.00000000
Pd       2.69991773       8.25758495       9.41936039  T       0.00000000       0.00000000       0.00000000
Pd       0.00142611       8.25206913       9.41853491  T       0.00000000       0.00000000       0.00000000
Pd       8.23188574       5.48782550       9.40673723  T       0.00000000       0.00000000       0.00000000
Pd       5.46799376       5.48123397       9.40398478  T       0.00000000       0.00000000       0.00000000
Pd       2.71982562       5.50455161       9.41305535  T       0.00000000       0.00000000       0.00000000
Pd      -0.02008273       5.49877819       9.41144488  T       0.00000000       0.00000000       0.00000000
Pd       8.21368563       2.76419674       9.40793355  T       0.00000000       0.00000000       0.00000000
Pd       1.35420606       9.63238085       7.41879081  T       0.00000000       0.00000000       0.00000000
Pd       5.46537764       2.76132062       9.40333964  T       0.00000000       0.00000000       0.00000000
Pd      -0.03890970       2.74933125       9.41648269  T       0.00000000       0.00000000       0.00000000
Pd       8.24078251       0.03582485       9.40602997  T       0.00000000       0.00000000       0.00000000
Pd       5.47480602       0.03384680       9.41379330  T       0.00000000       0.00000000       0.00000000
Pd       2.72452650       0.00897802       9.41616864  T       0.00000000       0.00000000       0.00000000
Pd      -0.01721522      -0.00105159       9.41806718  T       0.00000000       0.00000000       0.00000000
Pd       9.59980155       9.61904751       7.44028061  T       0.00000000       0.00000000       0.00000000
Pd       6.85878944       9.63413493       7.43399953  T       0.00000000       0.00000000       0.00000000
Pd       2.71670344       2.75838858       9.40921204  T       0.00000000       0.00000000       0.00000000
Pd      -0.01342153       5.50447129       5.43297376  T       0.00000000       0.00000000       0.00000000
Pd       8.24155020       2.75353488       5.42839250  T       0.00000000       0.00000000       0.00000000
Pd       5.48906123       2.75408945       5.42812793  T       0.00000000       0.00000000       0.00000000
Pd       1.37558630       1.37558630       3.44537281  F       0.00000000       0.00000000       0.00000000
Pd       8.25351783       8.25351783       1.50000000  F       0.00000000       0.00000000       0.00000000
Pd       5.50234522       8.25351783       1.50000000  F       0.00000000       0.00000000       0.00000000
Pd       2.75117261       8.25351783       1.50000000  F       0.00000000       0.00000000       0.00000000
Pd       0.00000000       8.25351783       1.50000000  F       0.00000000       0.00000000       0.00000000
Pd       8.25351783       5.50234522       1.50000000  F       0.00000000       0.00000000       0.00000000
Pd       5.50234522       5.50234522       1.50000000  F       0.00000000       0.00000000       0.00000000
Pd       4.12675891       1.37558630       3.44537281  F       0.00000000       0.00000000       0.00000000
Pd       2.75117261       5.50234522       1.50000000  F       0.00000000       0.00000000       0.00000000
Pd       8.25351783       2.75117261       1.50000000  F       0.00000000       0.00000000       0.00000000
Pd       5.50234522       2.75117261       1.50000000  F       0.00000000       0.00000000       0.00000000
Pd       2.75117261       2.75117261       1.50000000  F       0.00000000       0.00000000       0.00000000
Pd       0.00000000       2.75117261       1.50000000  F       0.00000000       0.00000000       0.00000000
Pd       8.25351783       0.00000000       1.50000000  F       0.00000000       0.00000000       0.00000000
Pd       5.50234522       0.00000000       1.50000000  F       0.00000000       0.00000000       0.00000000
Pd       2.75117261       0.00000000       1.50000000  F       0.00000000       0.00000000       0.00000000
Pd       0.00000000       5.50234522       1.50000000  F       0.00000000       0.00000000       0.00000000
Pd       6.87793152       1.37558630       3.44537281  F       0.00000000       0.00000000       0.00000000
Pd       9.62910413       1.37558630       3.44537281  F       0.00000000       0.00000000       0.00000000
Pd       1.37558630       4.12675891       3.44537281  F       0.00000000       0.00000000       0.00000000
Pd       2.73818130       2.75200636       5.43139939  T       0.00000000       0.00000000       0.00000000
Pd      -0.01444598       2.75041386       5.43329347  T       0.00000000       0.00000000       0.00000000
Pd       8.24253368      -0.00289436       5.43524669  T       0.00000000       0.00000000       0.00000000
Pd       5.48932642       0.00042700       5.43378999  T       0.00000000       0.00000000       0.00000000
Pd       2.74082588      -0.00018041       5.43388574  T       0.00000000       0.00000000       0.00000000
Pd      -0.01128221      -0.00251841       5.43232882  T       0.00000000       0.00000000       0.00000000
Pd       9.62910413       9.62910413       3.44537281  F       0.00000000       0.00000000       0.00000000
Pd       6.87793152       9.62910413       3.44537281  F       0.00000000       0.00000000       0.00000000
Pd       4.12675891       9.62910413       3.44537281  F       0.00000000       0.00000000       0.00000000
Pd       1.37558630       9.62910413       3.44537281  F       0.00000000       0.00000000       0.00000000
Pd       9.62910413       6.87793152       3.44537281  F       0.00000000       0.00000000       0.00000000
Pd       6.87793152       6.87793152       3.44537281  F       0.00000000       0.00000000       0.00000000
Pd       4.12675891       6.87793152       3.44537281  F       0.00000000       0.00000000       0.00000000
Pd       1.37558630       6.87793152       3.44537281  F       0.00000000       0.00000000       0.00000000
Pd       9.62910413       4.12675891       3.44537281  F       0.00000000       0.00000000       0.00000000
Pd       6.87793152       4.12675891       3.44537281  F       0.00000000       0.00000000       0.00000000
Pd       4.12675891       4.12675891       3.44537281  F       0.00000000       0.00000000       0.00000000
Pd       5.41318837       8.25391969       9.46274533  T       0.00000000       0.00000000       0.00000000
Pd       8.29318822       8.26698913       9.48284022  T       0.00000000       0.00000000       0.00000000
O        6.84280256       8.21445864      11.01719578  T       0.00000000       0.00000000       0.00000000
C        6.77580101       9.27276152      11.97552108  T       0.00000000       0.00000000       0.00000000
H        7.73992505       9.35043178      12.51125478  T       0.00000000       0.00000000       0.00000000
H        6.55748486      10.26215490      11.49554441  T       0.00000000       0.00000000       0.00000000
H        5.96867883       9.04404546      12.69630515  T       0.00000000       0.00000000       0.00000000
