85
Lattice="11.004690437655821 0.0 0.0 0.0 11.004690437655821 0.0 0.0 0.0 27.781491233325184" Properties=species:S:1:pos:R:3:move_mask:L:1:momenta:R:3 adsorbate_info="_JSON {\"site\": {\"coordinates\": [4.585287682356593, 10.087632901184502, 9.281491233325172], \"connectivity\": 3, \"topology\": [32, 33, 78], \"n_vector\": [-0.07181455765164768, -0.05372205875920852, 0.9959701851521311], \"h_vector\": [1.0, 0.0, 0.0], \"site_formula\": {\"Pd\": 3}}, \"smiles\": \"ClOC\", \"mdf\": 2.1685794225552355, \"adsorbate_formula\": \"CH3O\"}" mace_E=-415.86058382862257 converged=T n_steps=59 d_min=2.10171006244732 site_type=unknown dE_rel_meV=0 original_idx=166 rank=7 E_MACE=-415.8712321391327 pbc="T T T"
Pd       0.00000000       0.00000000       1.50000000  F       0.00000000       0.00000000       0.00000000
Pd       4.15674997       6.85721991       7.40743258  T       0.00000000       0.00000000       0.00000000
Pd       1.40187443       6.87914633       7.41390219  T       0.00000000       0.00000000       0.00000000
Pd       9.66263508       4.12755901       7.42689349  T       0.00000000       0.00000000       0.00000000
Pd       6.90905029       4.11459685       7.41497848  T       0.00000000       0.00000000       0.00000000
Pd       4.15733641       4.11339077       7.41335869  T       0.00000000       0.00000000       0.00000000
Pd       1.40525422       4.11717099       7.42389243  T       0.00000000       0.00000000       0.00000000
Pd       9.67122072       1.37699612       7.42640204  T       0.00000000       0.00000000       0.00000000
Pd       6.90977893       6.87097682       7.41226332  T       0.00000000       0.00000000       0.00000000
Pd       6.90832716       1.35782450       7.43962070  T       0.00000000       0.00000000       0.00000000
Pd       1.42374144       1.35602773       7.45045210  T       0.00000000       0.00000000       0.00000000
Pd       8.27167169       8.25566559       5.43322523  T       0.00000000       0.00000000       0.00000000
Pd       5.52385048       8.25137440       5.43339032  T       0.00000000       0.00000000       0.00000000
Pd       2.76717113       8.25273669       5.43120021  T       0.00000000       0.00000000       0.00000000
Pd       0.02129229       8.25569548       5.43401714  T       0.00000000       0.00000000       0.00000000
Pd       8.27021899       5.49887061       5.43398432  T       0.00000000       0.00000000       0.00000000
Pd       5.51996852       5.49367874       5.42923400  T       0.00000000       0.00000000       0.00000000
Pd       4.16399907       1.36238550       7.42759800  T       0.00000000       0.00000000       0.00000000
Pd       2.76006866       5.49425183       5.43099191  T       0.00000000       0.00000000       0.00000000
Pd       9.66114003       6.88118593       7.41782351  T       0.00000000       0.00000000       0.00000000
Pd       4.16573073       9.61951982       7.42448125  T       0.00000000       0.00000000       0.00000000
Pd       2.78871457       8.21344717       9.39304113  T       0.00000000       0.00000000       0.00000000
Pd       0.03984540       8.25294280       9.42169987  T       0.00000000       0.00000000       0.00000000
Pd       8.28805342       5.49933112       9.41426557  T       0.00000000       0.00000000       0.00000000
Pd       5.53756316       5.48594585       9.41208064  T       0.00000000       0.00000000       0.00000000
Pd       2.78169697       5.49061761       9.41493908  T       0.00000000       0.00000000       0.00000000
Pd       0.03269260       5.51158847       9.42285345  T       0.00000000       0.00000000       0.00000000
Pd       8.30697038       2.75473683       9.41812700  T       0.00000000       0.00000000       0.00000000
Pd       1.41772782       9.63707722       7.44344677  T       0.00000000       0.00000000       0.00000000
Pd       5.55589353       2.76101837       9.40382983  T       0.00000000       0.00000000       0.00000000
Pd       0.04721530       2.75892201       9.42678326  T       0.00000000       0.00000000       0.00000000
Pd       8.31861254      -0.00354799       9.41637252  T       0.00000000       0.00000000       0.00000000
Pd       5.60267862      -0.00634965       9.45767666  T       0.00000000       0.00000000       0.00000000
Pd       2.73707075      -0.02786077       9.48767551  T       0.00000000       0.00000000       0.00000000
Pd       0.02426256       0.00455091       9.43310885  T       0.00000000       0.00000000       0.00000000
Pd       9.66938776       9.63175485       7.42144163  T       0.00000000       0.00000000       0.00000000
Pd       6.90940147       9.63288128       7.43462240  T       0.00000000       0.00000000       0.00000000
Pd       2.79283374       2.76017416       9.41168515  T       0.00000000       0.00000000       0.00000000
Pd       0.01396435       5.49968076       5.43505448  T       0.00000000       0.00000000       0.00000000
Pd       8.27489814       2.74855394       5.43638685  T       0.00000000       0.00000000       0.00000000
Pd       5.52534591       2.73766921       5.43135193  T       0.00000000       0.00000000       0.00000000
Pd       1.37558630       1.37558630       3.44537281  F       0.00000000       0.00000000       0.00000000
Pd       8.25351783       8.25351783       1.50000000  F       0.00000000       0.00000000       0.00000000
Pd       5.50234522       8.25351783       1.50000000  F       0.00000000       0.00000000       0.00000000
Pd       2.75117261       8.25351783       1.50000000  F       0.00000000       0.00000000       0.00000000
Pd       0.00000000       8.25351783       1.50000000  F       0.00000000       0.00000000       0.00000000
Pd       8.25351783       5.50234522       1.50000000  F       0.00000000       0.00000000       0.00000000
Pd       5.50234522       5.50234522       1.50000000  F       0.00000000       0.00000000       0.00000000
Pd       4.12675891       1.37558630       3.44537281  F       0.00000000       0.00000000       0.00000000
Pd       2.75117261       5.50234522       1.50000000  F       0.00000000       0.00000000       0.00000000
Pd       8.25351783       2.75117261       1.50000000  F       0.00000000       0.00000000       0.00000000
Pd       5.50234522       2.75117261       1.50000000  F       0.00000000       0.00000000       0.00000000
Pd       2.75117261       2.75117261       1.50000000  F       0.00000000       0.00000000       0.00000000
Pd       0.00000000       2.75117261       1.50000000  F       0.00000000       0.00000000       0.00000000
Pd       8.25351783       0.00000000       1.50000000  F       0.00000000       0.00000000       0.00000000
Pd       5.50234522       0.00000000       1.50000000  F       0.00000000       0.00000000       0.00000000
Pd       2.75117261       0.00000000       1.50000000  F       0.00000000       0.00000000       0.00000000
Pd       0.00000000       5.50234522       1.50000000  F       0.00000000       0.00000000       0.00000000
Pd       6.87793152       1.37558630       3.44537281  F       0.00000000       0.00000000       0.00000000
Pd       9.62910413       1.37558630       3.44537281  F       0.00000000       0.00000000       0.00000000
Pd       1.37558630       4.12675891       3.44537281  F       0.00000000       0.00000000       0.00000000
Pd       2.76515809       2.73981982       5.43624148  T       0.00000000       0.00000000       0.00000000
Pd       0.02140350       2.74952281       5.44082434  T       0.00000000       0.00000000       0.00000000
Pd       8.27233799       0.00254065       5.43543291  T       0.00000000       0.00000000       0.00000000
Pd       5.52400169      -0.00505587       5.43156547  T       0.00000000       0.00000000       0.00000000
Pd       2.77591084      -0.00479887       5.43783422  T       0.00000000       0.00000000       0.00000000
Pd       0.02862908       0.00350267       5.43996426  T       0.00000000       0.00000000       0.00000000
Pd       9.62910413       9.62910413       3.44537281  F       0.00000000       0.00000000       0.00000000
Pd       6.87793152       9.62910413       3.44537281  F       0.00000000       0.00000000       0.00000000
Pd       4.12675891       9.62910413       3.44537281  F       0.00000000       0.00000000       0.00000000
Pd       1.37558630       9.62910413       3.44537281  F       0.00000000       0.00000000       0.00000000
Pd       9.62910413       6.87793152       3.44537281  F       0.00000000       0.00000000       0.00000000
Pd       6.87793152       6.87793152       3.44537281  F       0.00000000       0.00000000       0.00000000
Pd       4.12675891       6.87793152       3.44537281  F       0.00000000       0.00000000       0.00000000
Pd       1.37558630       6.87793152       3.44537281  F       0.00000000       0.00000000       0.00000000
Pd       9.62910413       4.12675891       3.44537281  F       0.00000000       0.00000000       0.00000000
Pd       6.87793152       4.12675891       3.44537281  F       0.00000000       0.00000000       0.00000000
Pd       4.12675891       4.12675891       3.44537281  F       0.00000000       0.00000000       0.00000000
Pd       5.55233646       8.21403856       9.40566130  T       0.00000000       0.00000000       0.00000000
Pd       8.30153244       8.24444267       9.41058033  T       0.00000000       0.00000000       0.00000000
O        4.19091563      11.00565364      11.01667306  T       0.00000000       0.00000000       0.00000000
C        4.28077246       9.94731997      11.97210517  T       0.00000000       0.00000000       0.00000000
H        3.30840209       9.81639700      12.48334884  T       0.00000000       0.00000000       0.00000000
H        4.57045706       8.97417718      11.49775341  T       0.00000000       0.00000000       0.00000000
H        5.05401252      10.22198605      12.71351243  T       0.00000000       0.00000000       0.00000000
