85
Lattice="11.004690437655821 0.0 0.0 0.0 11.004690437655821 0.0 0.0 0.0 27.781491233325184" Properties=species:S:1:pos:R:3:move_mask:L:1:momenta:R:3 adsorbate_info="_JSON {\"site\": {\"coordinates\": [8.253517828241865, 5.5023452188279105, 9.281491233325172], \"connectivity\": 1, \"topology\": [23], \"n_vector\": [-0.0013106811176300068, -0.0008737874117551028, 0.9999987593045138], \"h_vector\": [1.0, 0.0, 0.0], \"site_formula\": {\"Pd\": 1}}, \"smiles\": \"ClOC\", \"mdf\": 1.709786969090511, \"adsorbate_formula\": \"CH3O\"}" mace_E=-415.6062662158586 converged=T n_steps=40 d_min=2.470722437222134 site_type=unknown dE_rel_meV=0 original_idx=264 rank=170 E_MACE=-415.83759410002574 pbc="T T T"
Pd       0.00000000       0.00000000       1.50000000  F       0.00000000       0.00000000       0.00000000
Pd       4.13433740       6.87476160       7.41218377  T       0.00000000       0.00000000       0.00000000
Pd       1.38009018       6.87336322       7.41231227  T       0.00000000       0.00000000       0.00000000
Pd       9.62813846       4.12934669       7.44563237  T       0.00000000       0.00000000       0.00000000
Pd       6.90498933       4.12773785       7.43742493  T       0.00000000       0.00000000       0.00000000
Pd       4.14446539       4.12649845       7.41823095  T       0.00000000       0.00000000       0.00000000
Pd       1.38370818       4.12432984       7.41440977  T       0.00000000       0.00000000       0.00000000
Pd       9.63148158       1.36880408       7.41434465  T       0.00000000       0.00000000       0.00000000
Pd       6.89621137       6.86149853       7.43126706  T       0.00000000       0.00000000       0.00000000
Pd       6.88256328       1.37104730       7.41254596  T       0.00000000       0.00000000       0.00000000
Pd       1.37907879       1.37202456       7.41219029  T       0.00000000       0.00000000       0.00000000
Pd       8.25653593       8.24199592       5.43501018  T       0.00000000       0.00000000       0.00000000
Pd       5.50640837       8.24945493       5.43056002  T       0.00000000       0.00000000       0.00000000
Pd       2.75144856       8.25158489       5.42597630  T       0.00000000       0.00000000       0.00000000
Pd      -0.00107184       8.24733597       5.43018504  T       0.00000000       0.00000000       0.00000000
Pd       8.26161774       5.49609657       5.43358818  T       0.00000000       0.00000000       0.00000000
Pd       5.51522105       5.49857063       5.43544414  T       0.00000000       0.00000000       0.00000000
Pd       4.12889348       1.37661523       7.41086773  T       0.00000000       0.00000000       0.00000000
Pd       2.75811011       5.50090351       5.42880659  T       0.00000000       0.00000000       0.00000000
Pd       9.62870673       6.85449464       7.43764751  T       0.00000000       0.00000000       0.00000000
Pd       4.12243396       9.63222246       7.40707742  T       0.00000000       0.00000000       0.00000000
Pd       2.74837511       8.25699827       9.40535994  T       0.00000000       0.00000000       0.00000000
Pd       0.00909674       8.24902142       9.40910020  T       0.00000000       0.00000000       0.00000000
Pd       8.29113999       5.46198921       9.51705462  T       0.00000000       0.00000000       0.00000000
Pd       5.50870730       5.49666135       9.41450018  T       0.00000000       0.00000000       0.00000000
Pd       2.77461632       5.50313513       9.40917223  T       0.00000000       0.00000000       0.00000000
Pd       0.04996178       5.49331808       9.41713206  T       0.00000000       0.00000000       0.00000000
Pd       8.26371798       2.70193642       9.41795480  T       0.00000000       0.00000000       0.00000000
Pd       1.37282183       9.62717396       7.41073354  T       0.00000000       0.00000000       0.00000000
Pd       5.50910384       2.74065781       9.40968183  T       0.00000000       0.00000000       0.00000000
Pd       0.01706851       2.73479901       9.41010503  T       0.00000000       0.00000000       0.00000000
Pd       8.25177900      -0.01897394       9.41037451  T       0.00000000       0.00000000       0.00000000
Pd       5.49738176       0.00073527       9.40668482  T       0.00000000       0.00000000       0.00000000
Pd       2.74814666       0.00213537       9.40405770  T       0.00000000       0.00000000       0.00000000
Pd      -0.00221125      -0.00858405       9.40951116  T       0.00000000       0.00000000       0.00000000
Pd       9.62711868       9.61388025       7.41922554  T       0.00000000       0.00000000       0.00000000
Pd       6.87937368       9.62226809       7.41352366  T       0.00000000       0.00000000       0.00000000
Pd       2.76109855       2.75255195       9.40844788  T       0.00000000       0.00000000       0.00000000
Pd       0.00047143       5.49646789       5.43553842  T       0.00000000       0.00000000       0.00000000
Pd       8.25986651       2.75176625       5.43549713  T       0.00000000       0.00000000       0.00000000
Pd       5.50958543       2.75160950       5.43011439  T       0.00000000       0.00000000       0.00000000
Pd       1.37558630       1.37558630       3.44537281  F       0.00000000       0.00000000       0.00000000
Pd       8.25351783       8.25351783       1.50000000  F       0.00000000       0.00000000       0.00000000
Pd       5.50234522       8.25351783       1.50000000  F       0.00000000       0.00000000       0.00000000
Pd       2.75117261       8.25351783       1.50000000  F       0.00000000       0.00000000       0.00000000
Pd       0.00000000       8.25351783       1.50000000  F       0.00000000       0.00000000       0.00000000
Pd       8.25351783       5.50234522       1.50000000  F       0.00000000       0.00000000       0.00000000
Pd       5.50234522       5.50234522       1.50000000  F       0.00000000       0.00000000       0.00000000
Pd       4.12675891       1.37558630       3.44537281  F       0.00000000       0.00000000       0.00000000
Pd       2.75117261       5.50234522       1.50000000  F       0.00000000       0.00000000       0.00000000
Pd       8.25351783       2.75117261       1.50000000  F       0.00000000       0.00000000       0.00000000
Pd       5.50234522       2.75117261       1.50000000  F       0.00000000       0.00000000       0.00000000
Pd       2.75117261       2.75117261       1.50000000  F       0.00000000       0.00000000       0.00000000
Pd       0.00000000       2.75117261       1.50000000  F       0.00000000       0.00000000       0.00000000
Pd       8.25351783       0.00000000       1.50000000  F       0.00000000       0.00000000       0.00000000
Pd       5.50234522       0.00000000       1.50000000  F       0.00000000       0.00000000       0.00000000
Pd       2.75117261       0.00000000       1.50000000  F       0.00000000       0.00000000       0.00000000
Pd       0.00000000       5.50234522       1.50000000  F       0.00000000       0.00000000       0.00000000
Pd       6.87793152       1.37558630       3.44537281  F       0.00000000       0.00000000       0.00000000
Pd       9.62910413       1.37558630       3.44537281  F       0.00000000       0.00000000       0.00000000
Pd       1.37558630       4.12675891       3.44537281  F       0.00000000       0.00000000       0.00000000
Pd       2.75485132       2.75337175       5.42935789  T       0.00000000       0.00000000       0.00000000
Pd       0.00187091       2.74964298       5.43183378  T       0.00000000       0.00000000       0.00000000
Pd       8.25428965      -0.00643343       5.42898627  T       0.00000000       0.00000000       0.00000000
Pd       5.50379723      -0.00047981       5.42591590  T       0.00000000       0.00000000       0.00000000
Pd       2.74978488       0.00094632       5.42719795  T       0.00000000       0.00000000       0.00000000
Pd      -0.00278440      -0.00317038       5.42889916  T       0.00000000       0.00000000       0.00000000
Pd       9.62910413       9.62910413       3.44537281  F       0.00000000       0.00000000       0.00000000
Pd       6.87793152       9.62910413       3.44537281  F       0.00000000       0.00000000       0.00000000
Pd       4.12675891       9.62910413       3.44537281  F       0.00000000       0.00000000       0.00000000
Pd       1.37558630       9.62910413       3.44537281  F       0.00000000       0.00000000       0.00000000
Pd       9.62910413       6.87793152       3.44537281  F       0.00000000       0.00000000       0.00000000
Pd       6.87793152       6.87793152       3.44537281  F       0.00000000       0.00000000       0.00000000
Pd       4.12675891       6.87793152       3.44537281  F       0.00000000       0.00000000       0.00000000
Pd       1.37558630       6.87793152       3.44537281  F       0.00000000       0.00000000       0.00000000
Pd       9.62910413       4.12675891       3.44537281  F       0.00000000       0.00000000       0.00000000
Pd       6.87793152       4.12675891       3.44537281  F       0.00000000       0.00000000       0.00000000
Pd       4.12675891       4.12675891       3.44537281  F       0.00000000       0.00000000       0.00000000
Pd       5.49169906       8.25978138       9.39135171  T       0.00000000       0.00000000       0.00000000
Pd       8.25674182       8.25322041       9.42004173  T       0.00000000       0.00000000       0.00000000
O        8.16757372       5.64318561      11.48467294  T       0.00000000       0.00000000       0.00000000
C        7.28878551       6.61614500      11.98100396  T       0.00000000       0.00000000       0.00000000
H        7.38427481       6.62928958      13.08748704  T       0.00000000       0.00000000       0.00000000
H        7.51622298       7.65790094      11.60398484  T       0.00000000       0.00000000       0.00000000
H        6.21621452       6.41895102      11.71117886  T       0.00000000       0.00000000       0.00000000
