85
Lattice="11.004690437655821 0.0 0.0 0.0 11.004690437655821 0.0 0.0 0.0 27.781491233325184" Properties=species:S:1:pos:R:3:move_mask:L:1:momenta:R:3 adsorbate_info="_JSON {\"site\": {\"coordinates\": [0.0, 0.0, 9.281491233325172], \"connectivity\": 1, \"topology\": [34], \"n_vector\": [0.002619567301751816, 0.0026195673017583966, 0.999993137843607], \"h_vector\": [1.0, 0.0, 0.0], \"site_formula\": {\"Pd\": 1}}, \"smiles\": \"ClOC\", \"mdf\": 1.7097869690905096, \"adsorbate_formula\": \"CH3O\"}" mace_E=-415.8693755638615 converged=T n_steps=67 d_min=2.102595232380623 site_type=unknown dE_rel_meV=0 original_idx=0 rank=1 E_MACE=-415.87225263618353 pbc="T T T"
Pd       0.00000000       0.00000000       1.50000000  F       0.00000000       0.00000000       0.00000000
Pd       4.11024166       6.89287937       7.41246895  T       0.00000000       0.00000000       0.00000000
Pd       1.34898354       6.90888625       7.44229905  T       0.00000000       0.00000000       0.00000000
Pd       9.62066415       4.14342403       7.42235555  T       0.00000000       0.00000000       0.00000000
Pd       6.86743866       4.14036236       7.41681234  T       0.00000000       0.00000000       0.00000000
Pd       4.11955935       4.14202112       7.41456352  T       0.00000000       0.00000000       0.00000000
Pd       1.36818545       4.14552298       7.42198721  T       0.00000000       0.00000000       0.00000000
Pd       9.62088883       1.38879436       7.44115638  T       0.00000000       0.00000000       0.00000000
Pd       6.86850708       6.88945709       7.41489590  T       0.00000000       0.00000000       0.00000000
Pd       6.86300016       1.39207746       7.41962108  T       0.00000000       0.00000000       0.00000000
Pd       1.34531958       1.39068457       7.43970673  T       0.00000000       0.00000000       0.00000000
Pd       8.24722114       8.26014491       5.43351001  T       0.00000000       0.00000000       0.00000000
Pd       5.49220427       8.26136996       5.43022671  T       0.00000000       0.00000000       0.00000000
Pd       2.73661840       8.26152096       5.43281848  T       0.00000000       0.00000000       0.00000000
Pd      -0.00997179       8.26476765       5.43203690  T       0.00000000       0.00000000       0.00000000
Pd       8.25302447       5.51010839       5.43271545  T       0.00000000       0.00000000       0.00000000
Pd       5.49851346       5.51068405       5.43172918  T       0.00000000       0.00000000       0.00000000
Pd       4.10463316       1.39297902       7.41853028  T       0.00000000       0.00000000       0.00000000
Pd       2.74367963       5.51176710       5.43268509  T       0.00000000       0.00000000       0.00000000
Pd       9.63156509       6.90412925       7.43978660  T       0.00000000       0.00000000       0.00000000
Pd       4.10150581       9.64725980       7.41384317  T       0.00000000       0.00000000       0.00000000
Pd       2.74810682       8.27679287       9.40061665  T       0.00000000       0.00000000       0.00000000
Pd      -0.02898655       8.22645354       9.46918077  T       0.00000000       0.00000000       0.00000000
Pd       8.24543234       5.52226243       9.41368172  T       0.00000000       0.00000000       0.00000000
Pd       5.49523711       5.51673651       9.40832180  T       0.00000000       0.00000000       0.00000000
Pd       2.75175538       5.52795156       9.41229903  T       0.00000000       0.00000000       0.00000000
Pd      -0.00236346       5.50884865       9.42364897  T       0.00000000       0.00000000       0.00000000
Pd       8.23027633       2.77895560       9.41405196  T       0.00000000       0.00000000       0.00000000
Pd       1.34758518       9.64899751       7.42353562  T       0.00000000       0.00000000       0.00000000
Pd       5.48072635       2.76711981       9.41366644  T       0.00000000       0.00000000       0.00000000
Pd      -0.01733234       2.80577393       9.42454256  T       0.00000000       0.00000000       0.00000000
Pd       8.20472528       0.02475229       9.41238687  T       0.00000000       0.00000000       0.00000000
Pd       5.47703441       0.01428324       9.41092859  T       0.00000000       0.00000000       0.00000000
Pd       2.74780567       0.03159054       9.40851591  T       0.00000000       0.00000000       0.00000000
Pd      -0.02657633       0.09276082       9.46110833  T       0.00000000       0.00000000       0.00000000
Pd       9.60806768       9.64801867       7.42876882  T       0.00000000       0.00000000       0.00000000
Pd       6.85455338       9.64383965       7.41214008  T       0.00000000       0.00000000       0.00000000
Pd       2.73601306       2.78122999       9.41004688  T       0.00000000       0.00000000       0.00000000
Pd      -0.00370564       5.51373104       5.43655617  T       0.00000000       0.00000000       0.00000000
Pd       8.24845856       2.75949648       5.43347685  T       0.00000000       0.00000000       0.00000000
Pd       5.49505946       2.75657499       5.43169668  T       0.00000000       0.00000000       0.00000000
Pd       1.37558630       1.37558630       3.44537281  F       0.00000000       0.00000000       0.00000000
Pd       8.25351783       8.25351783       1.50000000  F       0.00000000       0.00000000       0.00000000
Pd       5.50234522       8.25351783       1.50000000  F       0.00000000       0.00000000       0.00000000
Pd       2.75117261       8.25351783       1.50000000  F       0.00000000       0.00000000       0.00000000
Pd       0.00000000       8.25351783       1.50000000  F       0.00000000       0.00000000       0.00000000
Pd       8.25351783       5.50234522       1.50000000  F       0.00000000       0.00000000       0.00000000
Pd       5.50234522       5.50234522       1.50000000  F       0.00000000       0.00000000       0.00000000
Pd       4.12675891       1.37558630       3.44537281  F       0.00000000       0.00000000       0.00000000
Pd       2.75117261       5.50234522       1.50000000  F       0.00000000       0.00000000       0.00000000
Pd       8.25351783       2.75117261       1.50000000  F       0.00000000       0.00000000       0.00000000
Pd       5.50234522       2.75117261       1.50000000  F       0.00000000       0.00000000       0.00000000
Pd       2.75117261       2.75117261       1.50000000  F       0.00000000       0.00000000       0.00000000
Pd       0.00000000       2.75117261       1.50000000  F       0.00000000       0.00000000       0.00000000
Pd       8.25351783       0.00000000       1.50000000  F       0.00000000       0.00000000       0.00000000
Pd       5.50234522       0.00000000       1.50000000  F       0.00000000       0.00000000       0.00000000
Pd       2.75117261       0.00000000       1.50000000  F       0.00000000       0.00000000       0.00000000
Pd       0.00000000       5.50234522       1.50000000  F       0.00000000       0.00000000       0.00000000
Pd       6.87793152       1.37558630       3.44537281  F       0.00000000       0.00000000       0.00000000
Pd       9.62910413       1.37558630       3.44537281  F       0.00000000       0.00000000       0.00000000
Pd       1.37558630       4.12675891       3.44537281  F       0.00000000       0.00000000       0.00000000
Pd       2.74041654       2.76059020       5.43283114  T       0.00000000       0.00000000       0.00000000
Pd      -0.00670234       2.75799959       5.43660793  T       0.00000000       0.00000000       0.00000000
Pd       8.24476925       0.01103823       5.43230413  T       0.00000000       0.00000000       0.00000000
Pd       5.48974310       0.00823535       5.43012946  T       0.00000000       0.00000000       0.00000000
Pd       2.73487482       0.01237719       5.43109801  T       0.00000000       0.00000000       0.00000000
Pd      -0.01363677       0.00840479       5.43297418  T       0.00000000       0.00000000       0.00000000
Pd       9.62910413       9.62910413       3.44537281  F       0.00000000       0.00000000       0.00000000
Pd       6.87793152       9.62910413       3.44537281  F       0.00000000       0.00000000       0.00000000
Pd       4.12675891       9.62910413       3.44537281  F       0.00000000       0.00000000       0.00000000
Pd       1.37558630       9.62910413       3.44537281  F       0.00000000       0.00000000       0.00000000
Pd       9.62910413       6.87793152       3.44537281  F       0.00000000       0.00000000       0.00000000
Pd       6.87793152       6.87793152       3.44537281  F       0.00000000       0.00000000       0.00000000
Pd       4.12675891       6.87793152       3.44537281  F       0.00000000       0.00000000       0.00000000
Pd       1.37558630       6.87793152       3.44537281  F       0.00000000       0.00000000       0.00000000
Pd       9.62910413       4.12675891       3.44537281  F       0.00000000       0.00000000       0.00000000
Pd       6.87793152       4.12675891       3.44537281  F       0.00000000       0.00000000       0.00000000
Pd       4.12675891       4.12675891       3.44537281  F       0.00000000       0.00000000       0.00000000
Pd       5.47319934       8.26588381       9.40770225  T       0.00000000       0.00000000       0.00000000
Pd       8.20438281       8.26693529       9.39930073  T       0.00000000       0.00000000       0.00000000
O        0.03505617      -1.33085460      10.99941722  T       0.00000000       0.00000000       0.00000000
C       -1.00668566      -1.30096290      11.97822165  T       0.00000000       0.00000000       0.00000000
H       -1.03466172      -2.27023740      12.50732685  T       0.00000000       0.00000000       0.00000000
H       -0.79192535      -0.48745532      12.69509137  T       0.00000000       0.00000000       0.00000000
H       -2.01051860      -1.11701328      11.51808277  T       0.00000000       0.00000000       0.00000000
