85
Lattice="11.004690437655821 0.0 0.0 0.0 11.004690437655821 0.0 0.0 0.0 27.781491233325184" Properties=species:S:1:pos:R:3:move_mask:L:1:momenta:R:3 adsorbate_info="_JSON {\"site\": {\"coordinates\": [0.0, 1.3755863047069776, 9.281491233325172], \"connectivity\": 2, \"topology\": [30, 34], \"n_vector\": [-0.000868599217752538, -0.00021714980443895688, 0.9999995991906003], \"h_vector\": [0.0, -1.0, 0.0], \"site_formula\": {\"Pd\": 2}}, \"smiles\": \"ClOC\", \"mdf\": 2.100200904101632, \"adsorbate_formula\": \"CH3O\"}" mace_E=-415.63007519209157 converged=T n_steps=67 d_min=2.1016725189958914 site_type=unknown dE_rel_meV=0 original_idx=5 rank=8 E_MACE=-415.8712112769522 pbc="T T T"
Pd       0.00000000       0.00000000       1.50000000  F       0.00000000       0.00000000       0.00000000
Pd       4.13240159       6.87314979       7.41242997  T       0.00000000       0.00000000       0.00000000
Pd       1.38097212       6.86084041       7.41809441  T       0.00000000       0.00000000       0.00000000
Pd       9.64218195       4.09711146       7.42012845  T       0.00000000       0.00000000       0.00000000
Pd       6.88669367       4.12440080       7.41341556  T       0.00000000       0.00000000       0.00000000
Pd       4.13433239       4.12522339       7.41248813  T       0.00000000       0.00000000       0.00000000
Pd       1.37919337       4.09733543       7.42034116  T       0.00000000       0.00000000       0.00000000
Pd       9.64546757       1.34928022       7.44446979  T       0.00000000       0.00000000       0.00000000
Pd       6.88183274       6.87217186       7.41276674  T       0.00000000       0.00000000       0.00000000
Pd       6.88940884       1.36944721       7.41792826  T       0.00000000       0.00000000       0.00000000
Pd       1.36982738       1.34895597       7.44581627  T       0.00000000       0.00000000       0.00000000
Pd       8.25942914       8.24808695       5.43302214  T       0.00000000       0.00000000       0.00000000
Pd       5.50361927       8.25533530       5.43123502  T       0.00000000       0.00000000       0.00000000
Pd       2.74827666       8.24930391       5.43443528  T       0.00000000       0.00000000       0.00000000
Pd       0.00233676       8.24854321       5.44218884  T       0.00000000       0.00000000       0.00000000
Pd       8.26107921       5.49552820       5.42979956  T       0.00000000       0.00000000       0.00000000
Pd       5.50553815       5.50058476       5.42776919  T       0.00000000       0.00000000       0.00000000
Pd       4.12618448       1.37053806       7.41801594  T       0.00000000       0.00000000       0.00000000
Pd       2.74996086       5.49588629       5.43044143  T       0.00000000       0.00000000       0.00000000
Pd       9.63295447       6.85951130       7.41754190  T       0.00000000       0.00000000       0.00000000
Pd       4.12290178       9.62626356       7.42105652  T       0.00000000       0.00000000       0.00000000
Pd       2.76269305       8.22793656       9.41181939  T       0.00000000       0.00000000       0.00000000
Pd       0.00120790       8.19215696       9.41588268  T       0.00000000       0.00000000       0.00000000
Pd       8.26460637       5.48472212       9.41069310  T       0.00000000       0.00000000       0.00000000
Pd       5.51168458       5.50650798       9.41274701  T       0.00000000       0.00000000       0.00000000
Pd       2.76029429       5.48599566       9.41001358  T       0.00000000       0.00000000       0.00000000
Pd       0.01043778       5.47236070       9.40838806  T       0.00000000       0.00000000       0.00000000
Pd       8.25393470       2.74330694       9.40691165  T       0.00000000       0.00000000       0.00000000
Pd       1.36442309       9.62455424       7.45395402  T       0.00000000       0.00000000       0.00000000
Pd       5.51424370       2.75695871       9.40555411  T       0.00000000       0.00000000       0.00000000
Pd       0.02271099       2.74909746       9.44963301  T       0.00000000       0.00000000       0.00000000
Pd       8.23528635      -0.01763081       9.41902395  T       0.00000000       0.00000000       0.00000000
Pd       5.50618258       0.00474683       9.41080430  T       0.00000000       0.00000000       0.00000000
Pd       2.77646150      -0.01427125       9.42227669  T       0.00000000       0.00000000       0.00000000
Pd      -0.00227494      -0.05532925       9.52444884  T       0.00000000       0.00000000       0.00000000
Pd       9.64265493       9.62156674       7.44867704  T       0.00000000       0.00000000       0.00000000
Pd       6.88509986       9.62484865       7.41937769  T       0.00000000       0.00000000       0.00000000
Pd       2.78002319       2.74679945       9.40742711  T       0.00000000       0.00000000       0.00000000
Pd       0.00340461       5.48695412       5.43545220  T       0.00000000       0.00000000       0.00000000
Pd       8.26166722       2.74135275       5.43245997  T       0.00000000       0.00000000       0.00000000
Pd       5.50597648       2.74788275       5.43270683  T       0.00000000       0.00000000       0.00000000
Pd       1.37558630       1.37558630       3.44537281  F       0.00000000       0.00000000       0.00000000
Pd       8.25351783       8.25351783       1.50000000  F       0.00000000       0.00000000       0.00000000
Pd       5.50234522       8.25351783       1.50000000  F       0.00000000       0.00000000       0.00000000
Pd       2.75117261       8.25351783       1.50000000  F       0.00000000       0.00000000       0.00000000
Pd       0.00000000       8.25351783       1.50000000  F       0.00000000       0.00000000       0.00000000
Pd       8.25351783       5.50234522       1.50000000  F       0.00000000       0.00000000       0.00000000
Pd       5.50234522       5.50234522       1.50000000  F       0.00000000       0.00000000       0.00000000
Pd       4.12675891       1.37558630       3.44537281  F       0.00000000       0.00000000       0.00000000
Pd       2.75117261       5.50234522       1.50000000  F       0.00000000       0.00000000       0.00000000
Pd       8.25351783       2.75117261       1.50000000  F       0.00000000       0.00000000       0.00000000
Pd       5.50234522       2.75117261       1.50000000  F       0.00000000       0.00000000       0.00000000
Pd       2.75117261       2.75117261       1.50000000  F       0.00000000       0.00000000       0.00000000
Pd       0.00000000       2.75117261       1.50000000  F       0.00000000       0.00000000       0.00000000
Pd       8.25351783       0.00000000       1.50000000  F       0.00000000       0.00000000       0.00000000
Pd       5.50234522       0.00000000       1.50000000  F       0.00000000       0.00000000       0.00000000
Pd       2.75117261       0.00000000       1.50000000  F       0.00000000       0.00000000       0.00000000
Pd       0.00000000       5.50234522       1.50000000  F       0.00000000       0.00000000       0.00000000
Pd       6.87793152       1.37558630       3.44537281  F       0.00000000       0.00000000       0.00000000
Pd       9.62910413       1.37558630       3.44537281  F       0.00000000       0.00000000       0.00000000
Pd       1.37558630       4.12675891       3.44537281  F       0.00000000       0.00000000       0.00000000
Pd       2.75024315       2.74165929       5.43290142  T       0.00000000       0.00000000       0.00000000
Pd       0.00392621       2.73011466       5.43211266  T       0.00000000       0.00000000       0.00000000
Pd       8.26289289      -0.00794710       5.43523056  T       0.00000000       0.00000000       0.00000000
Pd       5.50401302      -0.00047221       5.43225118  T       0.00000000       0.00000000       0.00000000
Pd       2.74564952      -0.00707567       5.43656218  T       0.00000000       0.00000000       0.00000000
Pd       0.00271195      -0.01057812       5.43567868  T       0.00000000       0.00000000       0.00000000
Pd       9.62910413       9.62910413       3.44537281  F       0.00000000       0.00000000       0.00000000
Pd       6.87793152       9.62910413       3.44537281  F       0.00000000       0.00000000       0.00000000
Pd       4.12675891       9.62910413       3.44537281  F       0.00000000       0.00000000       0.00000000
Pd       1.37558630       9.62910413       3.44537281  F       0.00000000       0.00000000       0.00000000
Pd       9.62910413       6.87793152       3.44537281  F       0.00000000       0.00000000       0.00000000
Pd       6.87793152       6.87793152       3.44537281  F       0.00000000       0.00000000       0.00000000
Pd       4.12675891       6.87793152       3.44537281  F       0.00000000       0.00000000       0.00000000
Pd       1.37558630       6.87793152       3.44537281  F       0.00000000       0.00000000       0.00000000
Pd       9.62910413       4.12675891       3.44537281  F       0.00000000       0.00000000       0.00000000
Pd       6.87793152       4.12675891       3.44537281  F       0.00000000       0.00000000       0.00000000
Pd       4.12675891       4.12675891       3.44537281  F       0.00000000       0.00000000       0.00000000
Pd       5.50536152       8.25610610       9.40616142  T       0.00000000       0.00000000       0.00000000
Pd       8.24709241       8.22705131       9.41181811  T       0.00000000       0.00000000       0.00000000
O       -0.02569866       0.14575322      11.49512981  T       0.00000000       0.00000000       0.00000000
C       -0.30028237       1.40725936      12.02510734  T       0.00000000       0.00000000       0.00000000
H        0.20087530       1.48705777      13.01229003  T       0.00000000       0.00000000       0.00000000
H        0.14194350       2.27563117      11.41189183  T       0.00000000       0.00000000       0.00000000
H       -1.38746024       1.61375341      12.12431898  T       0.00000000       0.00000000       0.00000000
