85
Lattice="11.004690437655821 0.0 0.0 0.0 11.004690437655821 0.0 0.0 0.0 27.781491233325184" Properties=species:S:1:pos:R:3:move_mask:L:1:momenta:R:3 adsorbate_info="_JSON {\"site\": {\"coordinates\": [10.087632901184502, 10.087632901184502, 9.281491233325172], \"connectivity\": 3, \"topology\": [22, 31, 34], \"n_vector\": [-0.057964673290522704, -0.057964673290524044, 0.9966344331301452], \"h_vector\": [0.0, 1.0, 0.0], \"site_formula\": {\"Pd\": 3}}, \"smiles\": \"ClOC\", \"mdf\": 2.038088314976403, \"adsorbate_formula\": \"CH3O\"}" mace_E=-415.83731320414574 converged=T n_steps=43 d_min=1.9782688852150656 site_type=unknown dE_rel_meV=0 original_idx=335 rank=334 E_MACE=-415.5784631204321 pbc="T T T"
Pd       0.00000000       0.00000000       1.50000000  F       0.00000000       0.00000000       0.00000000
Pd       4.09703925       6.88546365       7.41320723  T       0.00000000       0.00000000       0.00000000
Pd       1.33296673       6.88756135       7.44482671  T       0.00000000       0.00000000       0.00000000
Pd       9.60685106       4.12635466       7.41087282  T       0.00000000       0.00000000       0.00000000
Pd       6.85525341       4.13850252       7.41878518  T       0.00000000       0.00000000       0.00000000
Pd       4.10958214       4.13779194       7.41989430  T       0.00000000       0.00000000       0.00000000
Pd       1.35467031       4.12651531       7.41304443  T       0.00000000       0.00000000       0.00000000
Pd       9.63536047       1.36421019       7.43391109  T       0.00000000       0.00000000       0.00000000
Pd       6.85746607       6.88711277       7.41356594  T       0.00000000       0.00000000       0.00000000
Pd       6.87616079       1.38988967       7.41488878  T       0.00000000       0.00000000       0.00000000
Pd       1.35157378       1.36010743       7.45006004  T       0.00000000       0.00000000       0.00000000
Pd       8.25106054       8.25656859       5.42647783  T       0.00000000       0.00000000       0.00000000
Pd       5.49194389       8.26022303       5.42766217  T       0.00000000       0.00000000       0.00000000
Pd       2.73569966       8.25498878       5.42874608  T       0.00000000       0.00000000       0.00000000
Pd      -0.00949745       8.25237326       5.43092680  T       0.00000000       0.00000000       0.00000000
Pd       8.23872377       5.50504852       5.42872735  T       0.00000000       0.00000000       0.00000000
Pd       5.48864403       5.50942387       5.43233395  T       0.00000000       0.00000000       0.00000000
Pd       4.11608742       1.39178203       7.41760947  T       0.00000000       0.00000000       0.00000000
Pd       2.73768633       5.50360267       5.43194226  T       0.00000000       0.00000000       0.00000000
Pd       9.61197403       6.88019317       7.43590048  T       0.00000000       0.00000000       0.00000000
Pd       4.11364811       9.64222275       7.40635299  T       0.00000000       0.00000000       0.00000000
Pd       2.75252449       8.25888568       9.40531268  T       0.00000000       0.00000000       0.00000000
Pd      -0.02814771       8.18230395       9.46916193  T       0.00000000       0.00000000       0.00000000
Pd       8.21541823       5.50644598       9.41405347  T       0.00000000       0.00000000       0.00000000
Pd       5.46956571       5.52190118       9.41340537  T       0.00000000       0.00000000       0.00000000
Pd       2.72060711       5.50771334       9.40887680  T       0.00000000       0.00000000       0.00000000
Pd      -0.03571388       5.46671042       9.41447228  T       0.00000000       0.00000000       0.00000000
Pd       8.23456297       2.76893831       9.41016057  T       0.00000000       0.00000000       0.00000000
Pd       1.36380504       9.62880855       7.42632651  T       0.00000000       0.00000000       0.00000000
Pd       5.48722514       2.76536416       9.41795300  T       0.00000000       0.00000000       0.00000000
Pd      -0.01982364       2.76343316       9.41087052  T       0.00000000       0.00000000       0.00000000
Pd       8.22658447       0.02390161       9.40431811  T       0.00000000       0.00000000       0.00000000
Pd       5.50029191       0.01705867       9.39896290  T       0.00000000       0.00000000       0.00000000
Pd       2.77736611       0.01749734       9.40977467  T       0.00000000       0.00000000       0.00000000
Pd       0.00312571       0.04690075       9.48111480  T       0.00000000       0.00000000       0.00000000
Pd       9.62678148       9.62597213       7.43059309  T       0.00000000       0.00000000       0.00000000
Pd       6.86907482       9.64227675       7.40367342  T       0.00000000       0.00000000       0.00000000
Pd       2.73562837       2.76988791       9.41399542  T       0.00000000       0.00000000       0.00000000
Pd      -0.01373341       5.50343209       5.43162684  T       0.00000000       0.00000000       0.00000000
Pd       8.24873713       2.75307265       5.43036791  T       0.00000000       0.00000000       0.00000000
Pd       5.49516967       2.75978741       5.43314566  T       0.00000000       0.00000000       0.00000000
Pd       1.37558630       1.37558630       3.44537281  F       0.00000000       0.00000000       0.00000000
Pd       8.25351783       8.25351783       1.50000000  F       0.00000000       0.00000000       0.00000000
Pd       5.50234522       8.25351783       1.50000000  F       0.00000000       0.00000000       0.00000000
Pd       2.75117261       8.25351783       1.50000000  F       0.00000000       0.00000000       0.00000000
Pd       0.00000000       8.25351783       1.50000000  F       0.00000000       0.00000000       0.00000000
Pd       8.25351783       5.50234522       1.50000000  F       0.00000000       0.00000000       0.00000000
Pd       5.50234522       5.50234522       1.50000000  F       0.00000000       0.00000000       0.00000000
Pd       4.12675891       1.37558630       3.44537281  F       0.00000000       0.00000000       0.00000000
Pd       2.75117261       5.50234522       1.50000000  F       0.00000000       0.00000000       0.00000000
Pd       8.25351783       2.75117261       1.50000000  F       0.00000000       0.00000000       0.00000000
Pd       5.50234522       2.75117261       1.50000000  F       0.00000000       0.00000000       0.00000000
Pd       2.75117261       2.75117261       1.50000000  F       0.00000000       0.00000000       0.00000000
Pd       0.00000000       2.75117261       1.50000000  F       0.00000000       0.00000000       0.00000000
Pd       8.25351783       0.00000000       1.50000000  F       0.00000000       0.00000000       0.00000000
Pd       5.50234522       0.00000000       1.50000000  F       0.00000000       0.00000000       0.00000000
Pd       2.75117261       0.00000000       1.50000000  F       0.00000000       0.00000000       0.00000000
Pd       0.00000000       5.50234522       1.50000000  F       0.00000000       0.00000000       0.00000000
Pd       6.87793152       1.37558630       3.44537281  F       0.00000000       0.00000000       0.00000000
Pd       9.62910413       1.37558630       3.44537281  F       0.00000000       0.00000000       0.00000000
Pd       1.37558630       4.12675891       3.44537281  F       0.00000000       0.00000000       0.00000000
Pd       2.74174034       2.75393430       5.43424854  T       0.00000000       0.00000000       0.00000000
Pd      -0.00467866       2.74229440       5.43408666  T       0.00000000       0.00000000       0.00000000
Pd       8.26005611       0.00225967       5.43009332  T       0.00000000       0.00000000       0.00000000
Pd       5.49892357       0.01148948       5.43011539  T       0.00000000       0.00000000       0.00000000
Pd       2.74286476       0.00841823       5.43137069  T       0.00000000       0.00000000       0.00000000
Pd       0.00043856      -0.00638607       5.43047081  T       0.00000000       0.00000000       0.00000000
Pd       9.62910413       9.62910413       3.44537281  F       0.00000000       0.00000000       0.00000000
Pd       6.87793152       9.62910413       3.44537281  F       0.00000000       0.00000000       0.00000000
Pd       4.12675891       9.62910413       3.44537281  F       0.00000000       0.00000000       0.00000000
Pd       1.37558630       9.62910413       3.44537281  F       0.00000000       0.00000000       0.00000000
Pd       9.62910413       6.87793152       3.44537281  F       0.00000000       0.00000000       0.00000000
Pd       6.87793152       6.87793152       3.44537281  F       0.00000000       0.00000000       0.00000000
Pd       4.12675891       6.87793152       3.44537281  F       0.00000000       0.00000000       0.00000000
Pd       1.37558630       6.87793152       3.44537281  F       0.00000000       0.00000000       0.00000000
Pd       9.62910413       4.12675891       3.44537281  F       0.00000000       0.00000000       0.00000000
Pd       6.87793152       4.12675891       3.44537281  F       0.00000000       0.00000000       0.00000000
Pd       4.12675891       4.12675891       3.44537281  F       0.00000000       0.00000000       0.00000000
Pd       5.47285042       8.27133109       9.39590373  T       0.00000000       0.00000000       0.00000000
Pd       8.19494168       8.25212963       9.40345721  T       0.00000000       0.00000000       0.00000000
O       10.87694235       9.59789789      11.02540008  T       0.00000000       0.00000000       0.00000000
C        9.72597217       9.60986171      11.87394793  T       0.00000000       0.00000000       0.00000000
H       10.07510627       9.69055095      12.92030605  T       0.00000000       0.00000000       0.00000000
H        9.06378868      10.47882856      11.65125596  T       0.00000000       0.00000000       0.00000000
H        9.12375525       8.68020881      11.76597951  T       0.00000000       0.00000000       0.00000000
