       N       E                     dE             d eps       ncg     rms          rms(c)
DAV:   1     0.823091962567E+03    0.82309E+03   -0.43217E+04 13752   0.214E+03
DAV:   2     0.984945475233E+01   -0.81324E+03   -0.78429E+03 13984   0.611E+02
DAV:   3    -0.213437499436E+02   -0.31193E+02   -0.30397E+02 14880   0.123E+02
DAV:   4    -0.216952482383E+02   -0.35150E+00   -0.35139E+00 14448   0.139E+01
DAV:   5    -0.217007500205E+02   -0.55018E-02   -0.55017E-02 14872   0.170E+00    0.108E+01
DAV:   6    -0.208307179355E+02    0.87003E+00   -0.37577E+00 14480   0.137E+01    0.229E+00
DAV:   7    -0.208296859303E+02    0.10320E-02   -0.39114E-02 14424   0.148E+00    0.152E+00
DAV:   8    -0.208280808072E+02    0.16051E-02   -0.45651E-03 14848   0.554E-01    0.837E-01
DAV:   9    -0.208285762018E+02   -0.49539E-03   -0.26116E-03 14296   0.428E-01    0.864E-02
DAV:  10    -0.208288254807E+02   -0.24928E-03   -0.29622E-04 15128   0.131E-01    0.842E-02
DAV:  11    -0.208288762031E+02   -0.50722E-04   -0.27273E-05 14656   0.338E-02    0.679E-02
DAV:  12    -0.208289427111E+02   -0.66508E-04   -0.15240E-04 14112   0.698E-02    0.873E-03
DAV:  13    -0.208289486680E+02   -0.59569E-05   -0.43300E-06 12520   0.160E-02    0.585E-03
DAV:  14    -0.208289499627E+02   -0.12947E-05   -0.62688E-07  7440   0.591E-03    0.265E-03
DAV:  15    -0.208289514683E+02   -0.15056E-05   -0.29619E-07  7368   0.360E-03    0.123E-03
DAV:  16    -0.208289516246E+02   -0.15627E-06   -0.49619E-08  7272   0.171E-03
   1 F= -.23449877E+02 E0= -.23449834E+02  d E =-.129046E-03  mag=     0.9584
