 vasp.6.4.3 19Mar24 (build Nov 27 2025 15:18:09) complex                         
 executed on              LinuxNV date 2026.06.04  16:33:42
 running    4 mpi-ranks, with    1 threads/rank, on    1 nodes
 distrk:  each k-point on    4 cores,    1 groups
 distr:  one band on NCORE=   1 cores,    4 groups
 OpenACC runtime initialized ...    0 GPUs detected


--------------------------------------------------------------------------------------------------------


 INCAR:
   SYSTEM = pddmc
   ENCUT = 600
   PREC = Accurate
   LASPH = .TRUE.
   ADDGRID = .TRUE.
   ISPIN = 2
   IVDW = 12
   EDIFF = 1e-06
   NELM = 200
   NELMIN = 5
   ALGO = Normal
   NCORE = 1
   LREAL = .FALSE.
   LWAVE = .FALSE.
   LCHARG = .FALSE.
   LORBIT = 11
   ISYM = 2
   IBRION = -1
   NSW = 0
   ISIF = 0
   ISMEAR = 1
   SIGMA = 0.1
   EDIFFG = -0.01

 POTCAR:    PAW_PBE Pd_pv 28Jan2005               
 -----------------------------------------------------------------------------
|                                                                             |
|           W    W    AA    RRRRR   N    N  II  N    N   GGGG   !!!           |
|           W    W   A  A   R    R  NN   N  II  NN   N  G    G  !!!           |
|           W    W  A    A  R    R  N N  N  II  N N  N  G       !!!           |
|           W WW W  AAAAAA  RRRRR   N  N N  II  N  N N  G  GGG   !            |
|           WW  WW  A    A  R   R   N   NN  II  N   NN  G    G                |
|           W    W  A    A  R    R  N    N  II  N    N   GGGG   !!!           |
|                                                                             |
|     You use a magnetic or noncollinear calculation, but did not specify     |
|     the initial magnetic moment with the MAGMOM tag. Note that a            |
|     default of 1 will be used for all atoms. This ferromagnetic setup       |
|     may break the symmetry of the crystal, in particular it may rule        |
|     out finding an antiferromagnetic solution. Thence, we recommend         |
|     setting the initial magnetic moment manually or verifying carefully     |
|     that this magnetic setup is desired.                                    |
|                                                                             |
 -----------------------------------------------------------------------------

 POTCAR:    PAW_PBE Pd_pv 28Jan2005               
   SHA256 =  3ce661545bbde58da9a95410dea32907db2844916708bcd35bbe03ee66324d7f Pd_pv/POTCAR          
   COPYR  = (c) Copyright 28Jan2005 Georg Kresse                                                    
   COPYR  = This file is part of the software VASP. Any use, copying, and all other rights are regul
   COPYR  = If you do not have a valid VASP license, you may not use, copy or distribute this file. 
   VRHFIN =Pd: 4p5s4d                                                                               
   LEXCH  = PE                                                                                      
   EATOM  =  2621.5550 eV,  192.6789 Ry                                                             
                                                                                                    
   TITEL  = PAW_PBE Pd_pv 28Jan2005                                                                 
   LULTRA =        F    use ultrasoft PP ?                                                          
   IUNSCR =        1    unscreen: 0-lin 1-nonlin 2-no                                               
   RPACOR =    2.250    partial core radius                                                         
   POMASS =  106.420; ZVAL   =   16.000    mass and valenz                                          
   RCORE  =    2.400    outmost cutoff radius                                                       
   RWIGS  =    2.300; RWIGS  =    1.217    wigner-seitz radius (au A)                               
   ENMAX  =  250.925; ENMIN  =  188.194 eV                                                          
   ICORE  =        3    local potential                                                             
   LCOR   =        T    correct aug charges                                                         
   LPAW   =        T    paw PP                                                                      
   EAUG   =  473.067                                                                                
   DEXC   =    0.000                                                                                
   RMAX   =    2.449    core radius for proj-oper                                                   
   RAUG   =    1.300    factor for augmentation sphere                                              
   RDEP   =    2.405    radius for radial grids                                                     
   RDEPT  =    1.966    core radius for aug-charge                                                  
                                                                                                    
   Atomic configuration                                                                             
   11 entries                                                                                       
     n  l   j            E        occ.                                                              
     1  0  0.50    -24164.6632   2.0000                                                             
     2  0  0.50     -3530.9218   2.0000                                                             
     2  1  1.50     -3165.6822   6.0000                                                             
     3  0  0.50      -639.4578   2.0000                                                             
     3  1  1.50      -519.4532   6.0000                                                             
     3  2  2.50      -328.9758  10.0000                                                             
     4  0  0.50       -88.7014   2.0000                                                             
     4  1  1.50       -54.4541   6.0000                                                             
     4  2  2.50        -6.6878   9.0000                                                             
     5  0  0.50        -4.3543   1.0000                                                             
     4  3  2.50        -1.3606   0.0000                                                             
   Description                                                                                      
     l       E           TYP  RCUT    TYP  RCUT                                                     
     1    -54.4540524     23  2.100                                                                 
     1      4.0817478     23  2.100                                                                 
     2     -6.6878326     23  2.400                                                                 
     2     -4.0817478     23  2.400                                                                 
     0     -4.3542962     23  2.400                                                                 
     0     13.6058260     23  2.400                                                                 
     3     -5.4423304     23  2.400                                                                 
  local pseudopotential read in
  partial core-charges read in
  partial kinetic energy density read in
  atomic valenz-charges read in
  non local Contribution for L=            1  read in
    real space projection operators read in
  non local Contribution for L=            1  read in
    real space projection operators read in
  non local Contribution for L=            2  read in
    real space projection operators read in
  non local Contribution for L=            2  read in
    real space projection operators read in
  non local Contribution for L=            0  read in
    real space projection operators read in
  non local Contribution for L=            0  read in
    real space projection operators read in
    PAW grid and wavefunctions read in
 
   number of l-projection  operators is LMAX  =            6
   number of lm-projection operators is LMMAX =           18
 
  PAW_PBE Pd_pv 28Jan2005               :
 energy of atom  1       EATOM=-2621.5550
 kinetic energy error for atom=    0.0046 (will be added to EATOM!!)
 
 
 POSCAR: Pd
  positions in cartesian coordinates
  No initial velocities read in
 IVDW         = 12
 VDW_S6       =    1.0000
 VDW_S8       =    0.7875
 VDW_A1       =    0.4289
 VDW_A2       =    4.4407
 VDW_RADIUS   =   50.2022 A
 VDW_CNRADIUS =   21.1671 A


 exchange-correlation table for PE
   RHO(1)=    0.500       N(1)  =     2000
   RHO(2)=  100.500       N(2)  =     4000
 


--------------------------------------------------------------------------------------------------------


 ion  position               nearest neighbor table
   1  0.000  0.000  0.000-   2 2.77   3 2.77   2 2.77   3 2.77   2 2.77   4 2.77   2 2.77   3 2.77
                             4 2.77   3 2.77   4 2.77   4 2.77
   2  0.000  0.500  0.500-   1 2.77   4 2.77   1 2.77   4 2.77   1 2.77   3 2.77   1 2.77   3 2.77
                             4 2.77   4 2.77   3 2.77   3 2.77
   3  0.500  0.000  0.500-   1 2.77   4 2.77   1 2.77   4 2.77   2 2.77   4 2.77   4 2.77   1 2.77
                             2 2.77   1 2.77   2 2.77   2 2.77
   4  0.500  0.500  0.000-   2 2.77   3 2.77   2 2.77   3 2.77   1 2.77   3 2.77   3 2.77   1 2.77
                             2 2.77   2 2.77   1 2.77   1 2.77
 
  LATTYP: Found a simple cubic cell.
 ALAT       =     3.9173015750
  
  Lattice vectors:
  
 A1 = (   3.9173015750,   0.0000000000,   0.0000000000)
 A2 = (   0.0000000000,   3.9173015750,   0.0000000000)
 A3 = (   0.0000000000,   0.0000000000,   3.9173015750)


Analysis of symmetry for initial positions (statically):
=====================================================================
 Subroutine PRICEL returns following result:
 
  LATTYP: Found a face centered cubic cell.
 ALAT       =     3.9173015750
  
  Lattice vectors:
  
 A1 = (   1.9586507875,  -1.9586507875,   0.0000000000)
 A2 = (   1.9586507875,   0.0000000000,   1.9586507875)
 A3 = (   0.0000000000,  -1.9586507875,   1.9586507875)
 
   4 primitive cells build up your supercell.
 

 Routine SETGRP: Setting up the symmetry group for a 
 simple cubic supercell.


 Subroutine GETGRP returns: Found 48 space group operations
 (whereof 48 operations were pure point group operations)
 out of a pool of 48 trial point group operations.


The static configuration has the point symmetry O_h .


Analysis of symmetry for dynamics (positions and initial velocities):
=====================================================================
 Subroutine PRICEL returns following result:
 
  LATTYP: Found a face centered cubic cell.
 ALAT       =     3.9173015750
  
  Lattice vectors:
  
 A1 = (   1.9586507875,  -1.9586507875,   0.0000000000)
 A2 = (   1.9586507875,   0.0000000000,   1.9586507875)
 A3 = (   0.0000000000,  -1.9586507875,   1.9586507875)
 
   4 primitive cells build up your supercell.
 

 Routine SETGRP: Setting up the symmetry group for a 
 simple cubic supercell.


 Subroutine GETGRP returns: Found 48 space group operations
 (whereof 48 operations were pure point group operations)
 out of a pool of 48 trial point group operations.


The dynamic configuration has the point symmetry O_h .


Analysis of structural, dynamic, and magnetic symmetry:
=====================================================================
 Subroutine PRICEL returns following result:
 
  LATTYP: Found a face centered cubic cell.
 ALAT       =     3.9173015750
  
  Lattice vectors:
  
 A1 = (   1.9586507875,  -1.9586507875,   0.0000000000)
 A2 = (   1.9586507875,   0.0000000000,   1.9586507875)
 A3 = (   0.0000000000,  -1.9586507875,   1.9586507875)
 
   4 primitive cells build up your supercell.
 

 Routine SETGRP: Setting up the symmetry group for a 
 simple cubic supercell.


 Subroutine GETGRP returns: Found 48 space group operations
 (whereof 48 operations were pure point group operations)
 out of a pool of 48 trial point group operations.


The overall configuration has the point symmetry O_h .


 Subroutine INISYM returns: Found 48 space group operations
 (whereof 48 operations are pure point group operations),
 and found     4 'primitive' translations


----------------------------------------------------------------------------------------

                                     Primitive cell                                     

  volume of cell :      15.0280

  direct lattice vectors                    reciprocal lattice vectors
     1.958650787 -1.958650787  0.000000000     0.255277767 -0.255277767 -0.255277767
     1.958650787  0.000000000  1.958650787     0.255277767  0.255277767  0.255277767
     0.000000000 -1.958650787  1.958650787    -0.255277767 -0.255277767  0.255277767

  length of vectors
     2.769950508  2.769950508  2.769950508     0.442154063  0.442154063  0.442154063

  position of ions in fractional coordinates (direct lattice)
     0.000000000  0.000000000  0.000000000

  ion indices of the primitive-cell ions
   primitive index   ion index
                 1           1

----------------------------------------------------------------------------------------

 
 
 KPOINTS: Automatic mesh                          

Automatic generation of k-mesh.
 Grid dimensions read from file:
 generate k-points for:   12   12   12

 Generating k-lattice:

  Cartesian coordinates                     Fractional coordinates (reciprocal lattice)
     0.021273147 -0.000000000  0.000000000     0.083333333 -0.000000000  0.000000000
     0.000000000  0.021273147  0.000000000     0.000000000  0.083333333  0.000000000
    -0.000000000 -0.000000000  0.021273147     0.000000000  0.000000000  0.083333333

  Length of vectors
     0.021273147  0.021273147  0.021273147

  Shift w.r.t. Gamma in fractional coordinates (k-lattice)
     0.000000000  0.000000000  0.000000000

 
 Subroutine IBZKPT returns following result:
 ===========================================
 
 Found     84 irreducible k-points:
 
 Following reciprocal coordinates:
            Coordinates               Weight
  0.000000  0.000000  0.000000      1.000000
  0.083333  0.000000  0.000000      6.000000
  0.166667  0.000000  0.000000      6.000000
  0.250000  0.000000  0.000000      6.000000
  0.333333  0.000000  0.000000      6.000000
  0.416667  0.000000  0.000000      6.000000
  0.500000  0.000000  0.000000      3.000000
  0.083333  0.083333  0.000000     12.000000
  0.166667  0.083333  0.000000     24.000000
  0.250000  0.083333  0.000000     24.000000
  0.333333  0.083333  0.000000     24.000000
  0.416667  0.083333  0.000000     24.000000
  0.500000  0.083333  0.000000     12.000000
  0.166667  0.166667  0.000000     12.000000
  0.250000  0.166667  0.000000     24.000000
  0.333333  0.166667  0.000000     24.000000
  0.416667  0.166667  0.000000     24.000000
  0.500000  0.166667  0.000000     12.000000
  0.250000  0.250000  0.000000     12.000000
  0.333333  0.250000  0.000000     24.000000
  0.416667  0.250000  0.000000     24.000000
  0.500000  0.250000  0.000000     12.000000
  0.333333  0.333333  0.000000     12.000000
  0.416667  0.333333  0.000000     24.000000
  0.500000  0.333333  0.000000     12.000000
  0.416667  0.416667  0.000000     12.000000
  0.500000  0.416667  0.000000     12.000000
  0.500000  0.500000  0.000000      3.000000
  0.083333  0.083333  0.083333      8.000000
  0.166667  0.083333  0.083333     24.000000
  0.250000  0.083333  0.083333     24.000000
  0.333333  0.083333  0.083333     24.000000
  0.416667  0.083333  0.083333     24.000000
  0.500000  0.083333  0.083333     12.000000
  0.166667  0.166667  0.083333     24.000000
  0.250000  0.166667  0.083333     48.000000
  0.333333  0.166667  0.083333     48.000000
  0.416667  0.166667  0.083333     48.000000
  0.500000  0.166667  0.083333     24.000000
  0.250000  0.250000  0.083333     24.000000
  0.333333  0.250000  0.083333     48.000000
  0.416667  0.250000  0.083333     48.000000
  0.500000  0.250000  0.083333     24.000000
  0.333333  0.333333  0.083333     24.000000
  0.416667  0.333333  0.083333     48.000000
  0.500000  0.333333  0.083333     24.000000
  0.416667  0.416667  0.083333     24.000000
  0.500000  0.416667  0.083333     24.000000
  0.500000  0.500000  0.083333      6.000000
  0.166667  0.166667  0.166667      8.000000
  0.250000  0.166667  0.166667     24.000000
  0.333333  0.166667  0.166667     24.000000
  0.416667  0.166667  0.166667     24.000000
  0.500000  0.166667  0.166667     12.000000
  0.250000  0.250000  0.166667     24.000000
  0.333333  0.250000  0.166667     48.000000
  0.416667  0.250000  0.166667     48.000000
  0.500000  0.250000  0.166667     24.000000
  0.333333  0.333333  0.166667     24.000000
  0.416667  0.333333  0.166667     48.000000
  0.500000  0.333333  0.166667     24.000000
  0.416667  0.416667  0.166667     24.000000
  0.500000  0.416667  0.166667     24.000000
  0.500000  0.500000  0.166667      6.000000
  0.250000  0.250000  0.250000      8.000000
  0.333333  0.250000  0.250000     24.000000
  0.416667  0.250000  0.250000     24.000000
  0.500000  0.250000  0.250000     12.000000
  0.333333  0.333333  0.250000     24.000000
  0.416667  0.333333  0.250000     48.000000
  0.500000  0.333333  0.250000     24.000000
  0.416667  0.416667  0.250000     24.000000
  0.500000  0.416667  0.250000     24.000000
  0.500000  0.500000  0.250000      6.000000
  0.333333  0.333333  0.333333      8.000000
  0.416667  0.333333  0.333333     24.000000
  0.500000  0.333333  0.333333     12.000000
  0.416667  0.416667  0.333333     24.000000
  0.500000  0.416667  0.333333     24.000000
  0.500000  0.500000  0.333333      6.000000
  0.416667  0.416667  0.416667      8.000000
  0.500000  0.416667  0.416667     12.000000
  0.500000  0.500000  0.416667      6.000000
  0.500000  0.500000  0.500000      1.000000
 
 Following cartesian coordinates:
            Coordinates               Weight
  0.000000  0.000000  0.000000      1.000000
  0.021273  0.000000  0.000000      6.000000
  0.042546  0.000000  0.000000      6.000000
  0.063819  0.000000  0.000000      6.000000
  0.085093  0.000000  0.000000      6.000000
  0.106366  0.000000  0.000000      6.000000
  0.127639  0.000000  0.000000      3.000000
  0.021273  0.021273  0.000000     12.000000
  0.042546  0.021273  0.000000     24.000000
  0.063819  0.021273  0.000000     24.000000
  0.085093  0.021273  0.000000     24.000000
  0.106366  0.021273  0.000000     24.000000
  0.127639  0.021273  0.000000     12.000000
  0.042546  0.042546  0.000000     12.000000
  0.063819  0.042546  0.000000     24.000000
  0.085093  0.042546  0.000000     24.000000
  0.106366  0.042546  0.000000     24.000000
  0.127639  0.042546  0.000000     12.000000
  0.063819  0.063819  0.000000     12.000000
  0.085093  0.063819  0.000000     24.000000
  0.106366  0.063819  0.000000     24.000000
  0.127639  0.063819  0.000000     12.000000
  0.085093  0.085093  0.000000     12.000000
  0.106366  0.085093  0.000000     24.000000
  0.127639  0.085093  0.000000     12.000000
  0.106366  0.106366  0.000000     12.000000
  0.127639  0.106366  0.000000     12.000000
  0.127639  0.127639  0.000000      3.000000
  0.021273  0.021273  0.021273      8.000000
  0.042546  0.021273  0.021273     24.000000
  0.063819  0.021273  0.021273     24.000000
  0.085093  0.021273  0.021273     24.000000
  0.106366  0.021273  0.021273     24.000000
  0.127639  0.021273  0.021273     12.000000
  0.042546  0.042546  0.021273     24.000000
  0.063819  0.042546  0.021273     48.000000
  0.085093  0.042546  0.021273     48.000000
  0.106366  0.042546  0.021273     48.000000
  0.127639  0.042546  0.021273     24.000000
  0.063819  0.063819  0.021273     24.000000
  0.085093  0.063819  0.021273     48.000000
  0.106366  0.063819  0.021273     48.000000
  0.127639  0.063819  0.021273     24.000000
  0.085093  0.085093  0.021273     24.000000
  0.106366  0.085093  0.021273     48.000000
  0.127639  0.085093  0.021273     24.000000
  0.106366  0.106366  0.021273     24.000000
  0.127639  0.106366  0.021273     24.000000
  0.127639  0.127639  0.021273      6.000000
  0.042546  0.042546  0.042546      8.000000
  0.063819  0.042546  0.042546     24.000000
  0.085093  0.042546  0.042546     24.000000
  0.106366  0.042546  0.042546     24.000000
  0.127639  0.042546  0.042546     12.000000
  0.063819  0.063819  0.042546     24.000000
  0.085093  0.063819  0.042546     48.000000
  0.106366  0.063819  0.042546     48.000000
  0.127639  0.063819  0.042546     24.000000
  0.085093  0.085093  0.042546     24.000000
  0.106366  0.085093  0.042546     48.000000
  0.127639  0.085093  0.042546     24.000000
  0.106366  0.106366  0.042546     24.000000
  0.127639  0.106366  0.042546     24.000000
  0.127639  0.127639  0.042546      6.000000
  0.063819  0.063819  0.063819      8.000000
  0.085093  0.063819  0.063819     24.000000
  0.106366  0.063819  0.063819     24.000000
  0.127639  0.063819  0.063819     12.000000
  0.085093  0.085093  0.063819     24.000000
  0.106366  0.085093  0.063819     48.000000
  0.127639  0.085093  0.063819     24.000000
  0.106366  0.106366  0.063819     24.000000
  0.127639  0.106366  0.063819     24.000000
  0.127639  0.127639  0.063819      6.000000
  0.085093  0.085093  0.085093      8.000000
  0.106366  0.085093  0.085093     24.000000
  0.127639  0.085093  0.085093     12.000000
  0.106366  0.106366  0.085093     24.000000
  0.127639  0.106366  0.085093     24.000000
  0.127639  0.127639  0.085093      6.000000
  0.106366  0.106366  0.106366      8.000000
  0.127639  0.106366  0.106366     12.000000
  0.127639  0.127639  0.106366      6.000000
  0.127639  0.127639  0.127639      1.000000
 


--------------------------------------------------------------------------------------------------------




 Dimension of arrays:
   k-points           NKPTS =     84   k-points in BZ     NKDIM =     84   number of bands    NBANDS=     40
   number of dos      NEDOS =    301   number of ions     NIONS =      4
   non local maximal  LDIM  =      6   non local SUM 2l+1 LMDIM =     18
   total plane-waves  NPLWV =  32768
   max r-space proj   IRMAX =      1   max aug-charges    IRDMAX= 174767
   dimension x,y,z NGX =    32 NGY =   32 NGZ =   32
   dimension x,y,z NGXF=    64 NGYF=   64 NGZF=   64
   support grid    NGXF=   128 NGYF=  128 NGZF=  128
   ions per type =               4
   NGX,Y,Z   is equivalent  to a cutoff of  13.58, 13.58, 13.58 a.u.
   NGXF,Y,Z  is equivalent  to a cutoff of  27.16, 27.16, 27.16 a.u.

 SYSTEM =  pddmc                                   
 POSCAR =  Pd                                      

 Startparameter for this run:
   NWRITE =      2    write-flag & timer
   PREC   = accura    normal or accurate (medium, high low for compatibility)
   ISTART =      0    job   : 0-new  1-cont  2-samecut
   ICHARG =      2    charge: 1-file 2-atom 10-const
   ISPIN  =      2    spin polarized calculation?
   LNONCOLLINEAR =      F non collinear calculations
   LSORBIT =      F    spin-orbit coupling
   INIWAV =      1    electr: 0-lowe 1-rand  2-diag
   LASPH  =      T    aspherical Exc in radial PAW
 Electronic Relaxation 1
   ENCUT  =  600.0 eV  44.10 Ry    6.64 a.u.   7.82  7.82  7.82*2*pi/ulx,y,z
   ENINI  =  600.0     initial cutoff
   ENAUG  =  473.1 eV  augmentation charge cutoff
   NELM   =    200;   NELMIN=  5; NELMDL= -5     # of ELM steps 
   EDIFF  = 0.1E-05   stopping-criterion for ELM
   LREAL  =      F    real-space projection
   NLSPLINE    = F    spline interpolate recip. space projectors
   LCOMPAT=      F    compatible to vasp.4.4
   GGA_COMPAT  = T    GGA compatible to vasp.4.4-vasp.4.6
   LMAXPAW     = -100 max onsite density
   LMAXMIX     =    2 max onsite mixed and CHGCAR
   VOSKOWN=      0    Vosko Wilk Nusair interpolation
   ROPT   =    0.00000
 Ionic relaxation
   EDIFFG = -.1E-01   stopping-criterion for IOM
   NSW    =      0    number of steps for IOM
   NBLOCK =      1;   KBLOCK =      1    inner block; outer block 
   IBRION =     -1    ionic relax: 0-MD 1-quasi-New 2-CG
   NFREE  =      0    steps in history (QN), initial steepest desc. (CG)
   ISIF   =      0    stress and relaxation
   IWAVPR =     10    prediction:  0-non 1-charg 2-wave 3-comb
   ISYM   =      2    0-nonsym 1-usesym 2-fastsym
   LCORR  =      T    Harris-Foulkes like correction to forces

   POTIM  = 0.5000    time-step for ionic-motion
   TEIN   =    0.0    initial temperature
   TEBEG  =    0.0;   TEEND  =   0.0 temperature during run
   SMASS  =  -3.00    Nose mass-parameter (am)
   estimated Nose-frequenzy (Omega)   =  0.10E-29 period in steps = 0.13E+47 mass=  -0.351E-27a.u.
   SCALEE = 1.0000    scale energy and forces
   NPACO  =    256;   APACO  = 10.0  distance and # of slots for P.C.
   PSTRESS=    0.0 pullay stress

  Mass of Ions in am
   POMASS = 106.42
  Ionic Valenz
   ZVAL   =  16.00
  Atomic Wigner-Seitz radii
   RWIGS  =  -1.00
  virtual crystal weights 
   VCA    =   1.00
   NELECT =      64.0000    total number of electrons
   NUPDOWN=      -1.0000    fix difference up-down

 DOS related values:
   EMIN   =  10.00;   EMAX   =-10.00  energy-range for DOS
   EFERMI =   0.00;   METHOD = LEGACY      
   ISMEAR =     1;   SIGMA  =   0.10  broadening in eV -4-tet -1-fermi 0-gaus

 Electronic relaxation 2 (details)
   IALGO  =     38    algorithm
   LDIAG  =      T    sub-space diagonalisation (order eigenvalues)
   LSUBROT=      F    optimize rotation matrix (better conditioning)
   TURBO    =      0    0=normal 1=particle mesh
   IRESTART =      0    0=no restart 2=restart with 2 vectors
   NREBOOT  =      0    no. of reboots
   NMIN     =      0    reboot dimension
   EREF     =   0.00    reference energy to select bands
   IMIX   =      4    mixing-type and parameters
     AMIX     =   0.40;   BMIX     =  1.00
     AMIX_MAG =   1.60;   BMIX_MAG =  1.00
     AMIN     =   0.10
     WC   =   100.;   INIMIX=   1;  MIXPRE=   1;  MAXMIX= -45

 Intra band minimization:
   WEIMIN = 0.0000     energy-eigenvalue tresh-hold
   EBREAK =  0.62E-08  absolut break condition
   DEPER  =   0.30     relativ break condition  

   TIME   =   0.40     timestep for ELM

  volume/ion in A,a.u.               =      15.03       101.41
  Fermi-wavevector in a.u.,A,eV,Ry     =   1.671659  3.158978 38.020738  2.794445
  Thomas-Fermi vector in A             =   2.756943
 
 Write flags
   LWAVE        =      F    write WAVECAR
   LDOWNSAMPLE  =      F    k-point downsampling of WAVECAR
   LCHARG       =      F    write CHGCAR
   LVTOT        =      F    write LOCPOT, total local potential
   LVHAR        =      F    write LOCPOT, Hartree potential only
   WRT_POTENTIAL= false  ! write potential to hdf5 file
   LELF         =      F    write electronic localiz. function (ELF)
   LORBIT       =     11    0 simple, 1 ext, 2 COOP (PROOUT), +10 PAW based schemes


 Dipole corrections
   LMONO      =      F    monopole corrections only (constant potential shift)
   LDIPOL     =      F    correct potential (dipole corrections)
   IDIPOL     =      0    1-x, 2-y, 3-z, 4-all directions 
   EPSILON    =  1.0000000 bulk dielectric constant
   LVACPOTAV  =      F  vacuum potentials using an averaging scheme for the charge density
   VACPOTFLAT =  0.1000000 required flatness to determine vacuum potential
 Exchange correlation treatment:
   GGA     = PE    functional components
   XC_C    = 1    coefficients multiplying the functional components
   LIBXC   =     F    Libxc                    
   VOSKOWN =     0    Vosko Wilk Nusair interpolation
   LHFCALC =     F    Hartree Fock is set to
   LHFONE  =     F    Hartree Fock one center treatment
   AEXX    =    0.0000 exact exchange contribution

 Parameters of functionals:
   PE:
     No parameter
 
 Van der Waals corrections
   IVDW    =    12    specifies the selected vdW correction

 Linear response parameters
   LEPSILON=     F    determine dielectric tensor
   LRPA    =     F    only Hartree local field effects (RPA)
   LNABLA  =     F    use nabla operator in PAW spheres
   LVEL    =     F    velocity operator in full k-point grid
   CSHIFT  =0.1000    complex shift for real part using Kramers Kronig
   OMEGAMAX=  -1.0    maximum frequency
   DEG_THRESHOLD= 0.2000000E-02 threshold for treating states as degnerate
   RTIME   =   -0.100 relaxation time in fs
  (WPLASMAI=    0.000 imaginary part of plasma frequency in eV, 0.658/RTIME)
   DFIELD  = 0.0000000 0.0000000 0.0000000 field for delta impulse in time
 
  Optional k-point grid parameters
   LKPOINTS_OPT  =     F    use optional k-point grid
   KPOINTS_OPT_MODE=     1    mode for optional k-point grid
 
 Orbital magnetization related:
   ORBITALMAG=     F  switch on orbital magnetization
   LCHIMAG   =     F  perturbation theory with respect to B field
   DQ        =  0.001000  dq finite difference perturbation B field
   LLRAUG    =     F  two centre corrections for induced B field
   LBONE     =     F  B-component reconstruction in AE one-centre
   LVGVCALC  =     T  calculate vGv susceptibility
   LVGVAPPL  =     F  apply vGv susceptibility instead of pGv for G=0

 Random number generation:
   RANDOM_GENERATOR = DEFAULT
   PCG_SEED         = not used


--------------------------------------------------------------------------------------------------------


 Static calculation
 charge density and potential will be updated during run
 spin polarized calculation
 Variant of blocked Davidson
 Davidson routine will perform the subspace rotation
 perform sub-space diagonalisation
    after iterative eigenvector-optimisation
 modified Broyden-mixing scheme, WC =      100.0
 initial mixing is a Kerker type mixing with AMIX =  0.4000 and BMIX =      1.0000
 Hartree-type preconditioning will be used
 using additional bands             8
 reciprocal scheme for non local part
 use partial core corrections
 calculate Harris-corrections to forces 
   (improved forces if not selfconsistent)
 use gradient corrections 
 use of overlap-Matrix (Vanderbilt PP)
 Methfessel and Paxton  Order N= 1 SIGMA  =   0.10


--------------------------------------------------------------------------------------------------------


  energy-cutoff  :      600.00
  volume of cell :       60.11
      direct lattice vectors                 reciprocal lattice vectors
     3.917301575  0.000000000  0.000000000     0.255277767 -0.000000000  0.000000000
     0.000000000  3.917301575  0.000000000     0.000000000  0.255277767  0.000000000
     0.000000000  0.000000000  3.917301575    -0.000000000 -0.000000000  0.255277767

  length of vectors
     3.917301575  3.917301575  3.917301575     0.255277767  0.255277767  0.255277767


 
 k-points in units of 2pi/SCALE and weight: Automatic mesh                          
   0.00000000  0.00000000  0.00000000       0.001
   0.02127315  0.00000000  0.00000000       0.003
   0.04254629  0.00000000  0.00000000       0.003
   0.06381944  0.00000000  0.00000000       0.003
   0.08509259  0.00000000  0.00000000       0.003
   0.10636574  0.00000000  0.00000000       0.003
   0.12763888  0.00000000  0.00000000       0.002
   0.02127315  0.02127315  0.00000000       0.007
   0.04254629  0.02127315  0.00000000       0.014
   0.06381944  0.02127315  0.00000000       0.014
   0.08509259  0.02127315  0.00000000       0.014
   0.10636574  0.02127315  0.00000000       0.014
   0.12763888  0.02127315  0.00000000       0.007
   0.04254629  0.04254629  0.00000000       0.007
   0.06381944  0.04254629  0.00000000       0.014
   0.08509259  0.04254629  0.00000000       0.014
   0.10636574  0.04254629  0.00000000       0.014
   0.12763888  0.04254629  0.00000000       0.007
   0.06381944  0.06381944  0.00000000       0.007
   0.08509259  0.06381944  0.00000000       0.014
   0.10636574  0.06381944  0.00000000       0.014
   0.12763888  0.06381944  0.00000000       0.007
   0.08509259  0.08509259  0.00000000       0.007
   0.10636574  0.08509259  0.00000000       0.014
   0.12763888  0.08509259  0.00000000       0.007
   0.10636574  0.10636574  0.00000000       0.007
   0.12763888  0.10636574  0.00000000       0.007
   0.12763888  0.12763888  0.00000000       0.002
   0.02127315  0.02127315  0.02127315       0.005
   0.04254629  0.02127315  0.02127315       0.014
   0.06381944  0.02127315  0.02127315       0.014
   0.08509259  0.02127315  0.02127315       0.014
   0.10636574  0.02127315  0.02127315       0.014
   0.12763888  0.02127315  0.02127315       0.007
   0.04254629  0.04254629  0.02127315       0.014
   0.06381944  0.04254629  0.02127315       0.028
   0.08509259  0.04254629  0.02127315       0.028
   0.10636574  0.04254629  0.02127315       0.028
   0.12763888  0.04254629  0.02127315       0.014
   0.06381944  0.06381944  0.02127315       0.014
   0.08509259  0.06381944  0.02127315       0.028
   0.10636574  0.06381944  0.02127315       0.028
   0.12763888  0.06381944  0.02127315       0.014
   0.08509259  0.08509259  0.02127315       0.014
   0.10636574  0.08509259  0.02127315       0.028
   0.12763888  0.08509259  0.02127315       0.014
   0.10636574  0.10636574  0.02127315       0.014
   0.12763888  0.10636574  0.02127315       0.014
   0.12763888  0.12763888  0.02127315       0.003
   0.04254629  0.04254629  0.04254629       0.005
   0.06381944  0.04254629  0.04254629       0.014
   0.08509259  0.04254629  0.04254629       0.014
   0.10636574  0.04254629  0.04254629       0.014
   0.12763888  0.04254629  0.04254629       0.007
   0.06381944  0.06381944  0.04254629       0.014
   0.08509259  0.06381944  0.04254629       0.028
   0.10636574  0.06381944  0.04254629       0.028
   0.12763888  0.06381944  0.04254629       0.014
   0.08509259  0.08509259  0.04254629       0.014
   0.10636574  0.08509259  0.04254629       0.028
   0.12763888  0.08509259  0.04254629       0.014
   0.10636574  0.10636574  0.04254629       0.014
   0.12763888  0.10636574  0.04254629       0.014
   0.12763888  0.12763888  0.04254629       0.003
   0.06381944  0.06381944  0.06381944       0.005
   0.08509259  0.06381944  0.06381944       0.014
   0.10636574  0.06381944  0.06381944       0.014
   0.12763888  0.06381944  0.06381944       0.007
   0.08509259  0.08509259  0.06381944       0.014
   0.10636574  0.08509259  0.06381944       0.028
   0.12763888  0.08509259  0.06381944       0.014
   0.10636574  0.10636574  0.06381944       0.014
   0.12763888  0.10636574  0.06381944       0.014
   0.12763888  0.12763888  0.06381944       0.003
   0.08509259  0.08509259  0.08509259       0.005
   0.10636574  0.08509259  0.08509259       0.014
   0.12763888  0.08509259  0.08509259       0.007
   0.10636574  0.10636574  0.08509259       0.014
   0.12763888  0.10636574  0.08509259       0.014
   0.12763888  0.12763888  0.08509259       0.003
   0.10636574  0.10636574  0.10636574       0.005
   0.12763888  0.10636574  0.10636574       0.007
   0.12763888  0.12763888  0.10636574       0.003
   0.12763888  0.12763888  0.12763888       0.001
 
 k-points in reciprocal lattice and weights: Automatic mesh                          
   0.00000000  0.00000000  0.00000000       0.001
   0.08333333  0.00000000  0.00000000       0.003
   0.16666667  0.00000000  0.00000000       0.003
   0.25000000  0.00000000  0.00000000       0.003
   0.33333333  0.00000000  0.00000000       0.003
   0.41666667  0.00000000  0.00000000       0.003
   0.50000000  0.00000000  0.00000000       0.002
   0.08333333  0.08333333  0.00000000       0.007
   0.16666667  0.08333333  0.00000000       0.014
   0.25000000  0.08333333  0.00000000       0.014
   0.33333333  0.08333333  0.00000000       0.014
   0.41666667  0.08333333  0.00000000       0.014
   0.50000000  0.08333333  0.00000000       0.007
   0.16666667  0.16666667  0.00000000       0.007
   0.25000000  0.16666667  0.00000000       0.014
   0.33333333  0.16666667  0.00000000       0.014
   0.41666667  0.16666667  0.00000000       0.014
   0.50000000  0.16666667  0.00000000       0.007
   0.25000000  0.25000000  0.00000000       0.007
   0.33333333  0.25000000  0.00000000       0.014
   0.41666667  0.25000000  0.00000000       0.014
   0.50000000  0.25000000  0.00000000       0.007
   0.33333333  0.33333333  0.00000000       0.007
   0.41666667  0.33333333  0.00000000       0.014
   0.50000000  0.33333333  0.00000000       0.007
   0.41666667  0.41666667  0.00000000       0.007
   0.50000000  0.41666667  0.00000000       0.007
   0.50000000  0.50000000  0.00000000       0.002
   0.08333333  0.08333333  0.08333333       0.005
   0.16666667  0.08333333  0.08333333       0.014
   0.25000000  0.08333333  0.08333333       0.014
   0.33333333  0.08333333  0.08333333       0.014
   0.41666667  0.08333333  0.08333333       0.014
   0.50000000  0.08333333  0.08333333       0.007
   0.16666667  0.16666667  0.08333333       0.014
   0.25000000  0.16666667  0.08333333       0.028
   0.33333333  0.16666667  0.08333333       0.028
   0.41666667  0.16666667  0.08333333       0.028
   0.50000000  0.16666667  0.08333333       0.014
   0.25000000  0.25000000  0.08333333       0.014
   0.33333333  0.25000000  0.08333333       0.028
   0.41666667  0.25000000  0.08333333       0.028
   0.50000000  0.25000000  0.08333333       0.014
   0.33333333  0.33333333  0.08333333       0.014
   0.41666667  0.33333333  0.08333333       0.028
   0.50000000  0.33333333  0.08333333       0.014
   0.41666667  0.41666667  0.08333333       0.014
   0.50000000  0.41666667  0.08333333       0.014
   0.50000000  0.50000000  0.08333333       0.003
   0.16666667  0.16666667  0.16666667       0.005
   0.25000000  0.16666667  0.16666667       0.014
   0.33333333  0.16666667  0.16666667       0.014
   0.41666667  0.16666667  0.16666667       0.014
   0.50000000  0.16666667  0.16666667       0.007
   0.25000000  0.25000000  0.16666667       0.014
   0.33333333  0.25000000  0.16666667       0.028
   0.41666667  0.25000000  0.16666667       0.028
   0.50000000  0.25000000  0.16666667       0.014
   0.33333333  0.33333333  0.16666667       0.014
   0.41666667  0.33333333  0.16666667       0.028
   0.50000000  0.33333333  0.16666667       0.014
   0.41666667  0.41666667  0.16666667       0.014
   0.50000000  0.41666667  0.16666667       0.014
   0.50000000  0.50000000  0.16666667       0.003
   0.25000000  0.25000000  0.25000000       0.005
   0.33333333  0.25000000  0.25000000       0.014
   0.41666667  0.25000000  0.25000000       0.014
   0.50000000  0.25000000  0.25000000       0.007
   0.33333333  0.33333333  0.25000000       0.014
   0.41666667  0.33333333  0.25000000       0.028
   0.50000000  0.33333333  0.25000000       0.014
   0.41666667  0.41666667  0.25000000       0.014
   0.50000000  0.41666667  0.25000000       0.014
   0.50000000  0.50000000  0.25000000       0.003
   0.33333333  0.33333333  0.33333333       0.005
   0.41666667  0.33333333  0.33333333       0.014
   0.50000000  0.33333333  0.33333333       0.007
   0.41666667  0.41666667  0.33333333       0.014
   0.50000000  0.41666667  0.33333333       0.014
   0.50000000  0.50000000  0.33333333       0.003
   0.41666667  0.41666667  0.41666667       0.005
   0.50000000  0.41666667  0.41666667       0.007
   0.50000000  0.50000000  0.41666667       0.003
   0.50000000  0.50000000  0.50000000       0.001
 
 position of ions in fractional coordinates (direct lattice) 
   0.00000000  0.00000000  0.00000000
   0.00000000  0.50000000  0.50000000
   0.50000000  0.00000000  0.50000000
   0.50000000  0.50000000  0.00000000
 
 position of ions in cartesian coordinates  (Angst):
   0.00000000  0.00000000  0.00000000
   0.00000000  1.95865079  1.95865079
   1.95865079  0.00000000  1.95865079
   1.95865079  1.95865079  0.00000000
 


--------------------------------------------------------------------------------------------------------


 k-point     1 :   0.0000 0.0000 0.0000  plane waves:    2007
 k-point     2 :   0.0833 0.0000 0.0000  plane waves:    1999
 k-point     3 :   0.1667 0.0000 0.0000  plane waves:    1999
 k-point     4 :   0.2500 0.0000 0.0000  plane waves:    2000
 k-point     5 :   0.3333 0.0000 0.0000  plane waves:    2012
 k-point     6 :   0.4167 0.0000 0.0000  plane waves:    2012
 k-point     7 :   0.5000 0.0000 0.0000  plane waves:    1984
 k-point     8 :   0.0833 0.0833 0.0000  plane waves:    2009
 k-point     9 :   0.1667 0.0833 0.0000  plane waves:    2001
 k-point    10 :   0.2500 0.0833 0.0000  plane waves:    1995
 k-point    11 :   0.3333 0.0833 0.0000  plane waves:    1999
 k-point    12 :   0.4167 0.0833 0.0000  plane waves:    2011
 k-point    13 :   0.5000 0.0833 0.0000  plane waves:    2006
 k-point    14 :   0.1667 0.1667 0.0000  plane waves:    1995
 k-point    15 :   0.2500 0.1667 0.0000  plane waves:    1999
 k-point    16 :   0.3333 0.1667 0.0000  plane waves:    2011
 k-point    17 :   0.4167 0.1667 0.0000  plane waves:    2005
 k-point    18 :   0.5000 0.1667 0.0000  plane waves:    2006
 k-point    19 :   0.2500 0.2500 0.0000  plane waves:    2003
 k-point    20 :   0.3333 0.2500 0.0000  plane waves:    2011
 k-point    21 :   0.4167 0.2500 0.0000  plane waves:    2006
 k-point    22 :   0.5000 0.2500 0.0000  plane waves:    1998
 k-point    23 :   0.3333 0.3333 0.0000  plane waves:    2011
 k-point    24 :   0.4167 0.3333 0.0000  plane waves:    2015
 k-point    25 :   0.5000 0.3333 0.0000  plane waves:    2016
 k-point    26 :   0.4167 0.4167 0.0000  plane waves:    2009
 k-point    27 :   0.5000 0.4167 0.0000  plane waves:    2010
 k-point    28 :   0.5000 0.5000 0.0000  plane waves:    2000
 k-point    29 :   0.0833 0.0833 0.0833  plane waves:    2013
 k-point    30 :   0.1667 0.0833 0.0833  plane waves:    2002
 k-point    31 :   0.2500 0.0833 0.0833  plane waves:    1990
 k-point    32 :   0.3333 0.0833 0.0833  plane waves:    2001
 k-point    33 :   0.4167 0.0833 0.0833  plane waves:    2010
 k-point    34 :   0.5000 0.0833 0.0833  plane waves:    2010
 k-point    35 :   0.1667 0.1667 0.0833  plane waves:    1991
 k-point    36 :   0.2500 0.1667 0.0833  plane waves:    1995
 k-point    37 :   0.3333 0.1667 0.0833  plane waves:    2004
 k-point    38 :   0.4167 0.1667 0.0833  plane waves:    2010
 k-point    39 :   0.5000 0.1667 0.0833  plane waves:    2008
 k-point    40 :   0.2500 0.2500 0.0833  plane waves:    2001
 k-point    41 :   0.3333 0.2500 0.0833  plane waves:    2006
 k-point    42 :   0.4167 0.2500 0.0833  plane waves:    2006
 k-point    43 :   0.5000 0.2500 0.0833  plane waves:    2010
 k-point    44 :   0.3333 0.3333 0.0833  plane waves:    2004
 k-point    45 :   0.4167 0.3333 0.0833  plane waves:    2009
 k-point    46 :   0.5000 0.3333 0.0833  plane waves:    2020
 k-point    47 :   0.4167 0.4167 0.0833  plane waves:    2016
 k-point    48 :   0.5000 0.4167 0.0833  plane waves:    2016
 k-point    49 :   0.5000 0.5000 0.0833  plane waves:    2016
 k-point    50 :   0.1667 0.1667 0.1667  plane waves:    1980
 k-point    51 :   0.2500 0.1667 0.1667  plane waves:    1996
 k-point    52 :   0.3333 0.1667 0.1667  plane waves:    2002
 k-point    53 :   0.4167 0.1667 0.1667  plane waves:    1996
 k-point    54 :   0.5000 0.1667 0.1667  plane waves:    2006
 k-point    55 :   0.2500 0.2500 0.1667  plane waves:    2002
 k-point    56 :   0.3333 0.2500 0.1667  plane waves:    2006
 k-point    57 :   0.4167 0.2500 0.1667  plane waves:    2010
 k-point    58 :   0.5000 0.2500 0.1667  plane waves:    2016
 k-point    59 :   0.3333 0.3333 0.1667  plane waves:    2002
 k-point    60 :   0.4167 0.3333 0.1667  plane waves:    2017
 k-point    61 :   0.5000 0.3333 0.1667  plane waves:    2012
 k-point    62 :   0.4167 0.4167 0.1667  plane waves:    2023
 k-point    63 :   0.5000 0.4167 0.1667  plane waves:    2014
 k-point    64 :   0.5000 0.5000 0.1667  plane waves:    2028
 k-point    65 :   0.2500 0.2500 0.2500  plane waves:    2022
 k-point    66 :   0.3333 0.2500 0.2500  plane waves:    2005
 k-point    67 :   0.4167 0.2500 0.2500  plane waves:    2004
 k-point    68 :   0.5000 0.2500 0.2500  plane waves:    2012
 k-point    69 :   0.3333 0.3333 0.2500  plane waves:    2004
 k-point    70 :   0.4167 0.3333 0.2500  plane waves:    2017
 k-point    71 :   0.5000 0.3333 0.2500  plane waves:    2012
 k-point    72 :   0.4167 0.4167 0.2500  plane waves:    2013
 k-point    73 :   0.5000 0.4167 0.2500  plane waves:    2008
 k-point    74 :   0.5000 0.5000 0.2500  plane waves:    2016
 k-point    75 :   0.3333 0.3333 0.3333  plane waves:    2016
 k-point    76 :   0.4167 0.3333 0.3333  plane waves:    1999
 k-point    77 :   0.5000 0.3333 0.3333  plane waves:    2012
 k-point    78 :   0.4167 0.4167 0.3333  plane waves:    2002
 k-point    79 :   0.5000 0.4167 0.3333  plane waves:    1998
 k-point    80 :   0.5000 0.5000 0.3333  plane waves:    1984
 k-point    81 :   0.4167 0.4167 0.4167  plane waves:    2004
 k-point    82 :   0.5000 0.4167 0.4167  plane waves:    1980
 k-point    83 :   0.5000 0.5000 0.4167  plane waves:    1976
 k-point    84 :   0.5000 0.5000 0.5000  plane waves:    2008

 maximum and minimum number of plane-waves per node :      2028     1976

 maximum number of plane-waves:      2028
 maximum index in each direction: 
   IXMAX=    7   IYMAX=    7   IZMAX=    7
   IXMIN=   -8   IYMIN=   -8   IZMIN=   -8


 serial   3D FFT for wavefunctions
 parallel 3D FFT for charge:
    minimum data exchange during FFTs selected (reduces bandwidth)


 total amount of memory used by VASP MPI-rank0   128560. kBytes
=======================================================================

   base      :      30000. kBytes
   nonl-proj :      24660. kBytes
   fftplans  :       9841. kBytes
   grid      :       7487. kBytes
   one-center:        124. kBytes
   wavefun   :      56448. kBytes
 
     INWAV:  cpu time      0.0000: real time      0.0000
 Broyden mixing: mesh for mixing (old mesh)
   NGX = 15   NGY = 15   NGZ = 15
  (NGX  = 64   NGY  = 64   NGZ  = 64)
  gives a total of   3375 points

 initial charge density was supplied:
 charge density of overlapping atoms calculated
 number of electron      64.0000000 magnetization       4.0000000
 keeping initial charge density in first step


--------------------------------------------------------------------------------------------------------


 Maximum index for augmentation-charges         42465 (set IRDMAX)


--------------------------------------------------------------------------------------------------------


 First call to EWALD:  gamma=   0.452
 Maximum number of real-space cells 3x 3x 3
 Maximum number of reciprocal cells 3x 3x 3

    FEWALD:  cpu time      0.0004: real time      0.0004


--------------------------------------- Ionic step        1  -------------------------------------------




--------------------------------------- Iteration      1(   1)  ---------------------------------------


    POTLOK:  cpu time      0.0513: real time      0.0514
    SETDIJ:  cpu time      0.4441: real time      0.4442
     EDDAV:  cpu time      5.3920: real time      5.7523
       DOS:  cpu time      0.0010: real time      0.0010
    --------------------------------------------
      LOOP:  cpu time      5.8884: real time      6.2489

 eigenvalue-minimisations  : 13752
 total energy-change (2. order) : 0.8230920E+03  (-0.4321705E+04)
 number of electron      64.0000000 magnetization       4.0000000
 augmentation part       64.0000000 magnetization       4.0000000

 Free energy of the ion-electron system (eV)
  ---------------------------------------------------
  alpha Z        PSCENC =       542.73305656
  Ewald energy   TEWEN  =     -8629.09612564
  -Hartree energ DENC   =     -2225.92554515
  -exchange      EXHF   =         0.00000000
  -V(xc)+E(xc)   XCENC  =       331.53594945
  PAW double counting   =      9031.68406025    -8916.38598993
  entropy T*S    EENTRO =         0.00032224
  eigenvalues    EBANDS =       202.34478981
  atomic energy  EATOM  =     10486.20144499
  Solvation  Ediel_sol  =         0.00000000
  ---------------------------------------------------
  free energy    TOTEN  =       823.09196257 eV

  energy without entropy =      823.09164033  energy(sigma->0) =      823.09185515


--------------------------------------------------------------------------------------------------------




--------------------------------------- Iteration      1(   2)  ---------------------------------------


     EDDAV:  cpu time      5.3373: real time      5.3377
       DOS:  cpu time      0.0012: real time      0.0012
    --------------------------------------------
      LOOP:  cpu time      5.3384: real time      5.3389

 eigenvalue-minimisations  : 13984
 total energy-change (2. order) :-0.8132425E+03  (-0.7842918E+03)
 number of electron      64.0000000 magnetization       4.0000000
 augmentation part       64.0000000 magnetization       4.0000000

 Free energy of the ion-electron system (eV)
  ---------------------------------------------------
  alpha Z        PSCENC =       542.73305656
  Ewald energy   TEWEN  =     -8629.09612564
  -Hartree energ DENC   =     -2225.92554515
  -exchange      EXHF   =         0.00000000
  -V(xc)+E(xc)   XCENC  =       331.53594945
  PAW double counting   =      9031.68406025    -8916.38598993
  entropy T*S    EENTRO =        -0.00104153
  eigenvalues    EBANDS =      -610.89635424
  atomic energy  EATOM  =     10486.20144499
  Solvation  Ediel_sol  =         0.00000000
  ---------------------------------------------------
  free energy    TOTEN  =         9.84945475 eV

  energy without entropy =        9.85049628  energy(sigma->0) =        9.84980193


--------------------------------------------------------------------------------------------------------




--------------------------------------- Iteration      1(   3)  ---------------------------------------


     EDDAV:  cpu time      5.5774: real time      5.5793
       DOS:  cpu time      0.0012: real time      0.0012
    --------------------------------------------
      LOOP:  cpu time      5.5786: real time      5.5805

 eigenvalue-minimisations  : 14880
 total energy-change (2. order) :-0.3119320E+02  (-0.3039651E+02)
 number of electron      64.0000000 magnetization       4.0000000
 augmentation part       64.0000000 magnetization       4.0000000

 Free energy of the ion-electron system (eV)
  ---------------------------------------------------
  alpha Z        PSCENC =       542.73305656
  Ewald energy   TEWEN  =     -8629.09612564
  -Hartree energ DENC   =     -2225.92554515
  -exchange      EXHF   =         0.00000000
  -V(xc)+E(xc)   XCENC  =       331.53594945
  PAW double counting   =      9031.68406025    -8916.38598993
  entropy T*S    EENTRO =         0.00148357
  eigenvalues    EBANDS =      -642.09208404
  atomic energy  EATOM  =     10486.20144499
  Solvation  Ediel_sol  =         0.00000000
  ---------------------------------------------------
  free energy    TOTEN  =       -21.34374994 eV

  energy without entropy =      -21.34523352  energy(sigma->0) =      -21.34424447


--------------------------------------------------------------------------------------------------------




--------------------------------------- Iteration      1(   4)  ---------------------------------------


     EDDAV:  cpu time      5.4683: real time      5.4700
       DOS:  cpu time      0.0012: real time      0.0012
    --------------------------------------------
      LOOP:  cpu time      5.4695: real time      5.4711

 eigenvalue-minimisations  : 14448
 total energy-change (2. order) :-0.3514983E+00  (-0.3513895E+00)
 number of electron      64.0000000 magnetization       4.0000000
 augmentation part       64.0000000 magnetization       4.0000000

 Free energy of the ion-electron system (eV)
  ---------------------------------------------------
  alpha Z        PSCENC =       542.73305656
  Ewald energy   TEWEN  =     -8629.09612564
  -Hartree energ DENC   =     -2225.92554515
  -exchange      EXHF   =         0.00000000
  -V(xc)+E(xc)   XCENC  =       331.53594945
  PAW double counting   =      9031.68406025    -8916.38598993
  entropy T*S    EENTRO =         0.00147258
  eigenvalues    EBANDS =      -642.44357134
  atomic energy  EATOM  =     10486.20144499
  Solvation  Ediel_sol  =         0.00000000
  ---------------------------------------------------
  free energy    TOTEN  =       -21.69524824 eV

  energy without entropy =      -21.69672082  energy(sigma->0) =      -21.69573910


--------------------------------------------------------------------------------------------------------




--------------------------------------- Iteration      1(   5)  ---------------------------------------


     EDDAV:  cpu time      5.5394: real time      5.5407
       DOS:  cpu time      0.0011: real time      0.0011
    CHARGE:  cpu time      0.4697: real time      0.4697
    MIXING:  cpu time      0.0014: real time      0.0014
    --------------------------------------------
      LOOP:  cpu time      6.0117: real time      6.0130

 eigenvalue-minimisations  : 14872
 total energy-change (2. order) :-0.5501782E-02  (-0.5501718E-02)
 number of electron      64.0000003 magnetization       1.8392570
 augmentation part       29.8745154 magnetization       1.0182123

 Broyden mixing:
  rms(total) = 0.10831E+01    rms(broyden)= 0.10830E+01
  rms(prec ) = 0.18667E+01
  weight for this iteration     100.00

 Free energy of the ion-electron system (eV)
  ---------------------------------------------------
  alpha Z        PSCENC =       542.73305656
  Ewald energy   TEWEN  =     -8629.09612564
  -Hartree energ DENC   =     -2225.92554515
  -exchange      EXHF   =         0.00000000
  -V(xc)+E(xc)   XCENC  =       331.53594945
  PAW double counting   =      9031.68406025    -8916.38598993
  entropy T*S    EENTRO =         0.00147252
  eigenvalues    EBANDS =      -642.44907307
  atomic energy  EATOM  =     10486.20144499
  Solvation  Ediel_sol  =         0.00000000
  ---------------------------------------------------
  free energy    TOTEN  =       -21.70075002 eV

  energy without entropy =      -21.70222255  energy(sigma->0) =      -21.70124086


--------------------------------------------------------------------------------------------------------




--------------------------------------- Iteration      1(   6)  ---------------------------------------


    POTLOK:  cpu time      0.0456: real time      0.0457
    SETDIJ:  cpu time      0.4310: real time      0.4310
     EDDAV:  cpu time      5.4710: real time      5.4718
       DOS:  cpu time      0.0012: real time      0.0012
    CHARGE:  cpu time      0.4549: real time      0.4550
    MIXING:  cpu time      0.0017: real time      0.0017
    --------------------------------------------
      LOOP:  cpu time      6.4054: real time      6.4064

 eigenvalue-minimisations  : 14480
 total energy-change (2. order) : 0.8700321E+00  (-0.3757656E+00)
 number of electron      64.0000003 magnetization       1.5095794
 augmentation part       30.6977788 magnetization       0.9145877

 Broyden mixing:
  rms(total) = 0.22904E+00    rms(broyden)= 0.22902E+00
  rms(prec ) = 0.27544E+00
  weight for this iteration     100.00

 eigenvalues of (default mixing * dielectric matrix)
  average eigenvalue GAMMA=   1.0116
  1.0116

 Free energy of the ion-electron system (eV)
  ---------------------------------------------------
  alpha Z        PSCENC =       542.73305656
  Ewald energy   TEWEN  =     -8629.09612564
  -Hartree energ DENC   =     -2157.19206531
  -exchange      EXHF   =         0.00000000
  -V(xc)+E(xc)   XCENC  =       328.31606430
  PAW double counting   =      9251.57923530    -9144.05160850
  entropy T*S    EENTRO =         0.00076697
  eigenvalues    EBANDS =      -699.32148661
  atomic energy  EATOM  =     10486.20144499
  Solvation  Ediel_sol  =         0.00000000
  ---------------------------------------------------
  free energy    TOTEN  =       -20.83071794 eV

  energy without entropy =      -20.83148491  energy(sigma->0) =      -20.83097359


--------------------------------------------------------------------------------------------------------




--------------------------------------- Iteration      1(   7)  ---------------------------------------


    POTLOK:  cpu time      0.0462: real time      0.0463
    SETDIJ:  cpu time      0.4306: real time      0.4307
     EDDAV:  cpu time      5.4192: real time      5.4203
       DOS:  cpu time      0.0011: real time      0.0011
    CHARGE:  cpu time      0.4652: real time      0.4652
    MIXING:  cpu time      0.0016: real time      0.0016
    --------------------------------------------
      LOOP:  cpu time      6.3639: real time      6.3652

 eigenvalue-minimisations  : 14424
 total energy-change (2. order) : 0.1032005E-02  (-0.3911362E-02)
 number of electron      64.0000003 magnetization       1.2842768
 augmentation part       30.6829671 magnetization       0.8062518

 Broyden mixing:
  rms(total) = 0.15228E+00    rms(broyden)= 0.15228E+00
  rms(prec ) = 0.17898E+00
  weight for this iteration     100.00

 eigenvalues of (default mixing * dielectric matrix)
  average eigenvalue GAMMA=   0.9700
  1.2924  0.6476

 Free energy of the ion-electron system (eV)
  ---------------------------------------------------
  alpha Z        PSCENC =       542.73305656
  Ewald energy   TEWEN  =     -8629.09612564
  -Hartree energ DENC   =     -2156.44078239
  -exchange      EXHF   =         0.00000000
  -V(xc)+E(xc)   XCENC  =       328.26533396
  PAW double counting   =      9382.24709911    -9276.02799799
  entropy T*S    EENTRO =        -0.00028662
  eigenvalues    EBANDS =      -698.71142790
  atomic energy  EATOM  =     10486.20144499
  Solvation  Ediel_sol  =         0.00000000
  ---------------------------------------------------
  free energy    TOTEN  =       -20.82968593 eV

  energy without entropy =      -20.82939931  energy(sigma->0) =      -20.82959039


--------------------------------------------------------------------------------------------------------




--------------------------------------- Iteration      1(   8)  ---------------------------------------


    POTLOK:  cpu time      0.0464: real time      0.0465
    SETDIJ:  cpu time      0.4302: real time      0.4302
     EDDAV:  cpu time      5.5207: real time      5.5220
       DOS:  cpu time      0.0011: real time      0.0011
    CHARGE:  cpu time      0.4642: real time      0.4642
    MIXING:  cpu time      0.0020: real time      0.0020
    --------------------------------------------
      LOOP:  cpu time      6.4646: real time      6.4661

 eigenvalue-minimisations  : 14848
 total energy-change (2. order) : 0.1605123E-02  (-0.4565090E-03)
 number of electron      64.0000003 magnetization       1.0893487
 augmentation part       30.6837413 magnetization       0.6459824

 Broyden mixing:
  rms(total) = 0.83747E-01    rms(broyden)= 0.83746E-01
  rms(prec ) = 0.97533E-01
  weight for this iteration     100.00

 eigenvalues of (default mixing * dielectric matrix)
  average eigenvalue GAMMA=   1.2690
  2.2695  0.9242  0.6134

 Free energy of the ion-electron system (eV)
  ---------------------------------------------------
  alpha Z        PSCENC =       542.73305656
  Ewald energy   TEWEN  =     -8629.09612564
  -Hartree energ DENC   =     -2155.08925176
  -exchange      EXHF   =         0.00000000
  -V(xc)+E(xc)   XCENC  =       328.18823851
  PAW double counting   =      9474.91396919    -9369.48013870
  entropy T*S    EENTRO =        -0.00052573
  eigenvalues    EBANDS =      -699.19874824
  atomic energy  EATOM  =     10486.20144499
  Solvation  Ediel_sol  =         0.00000000
  ---------------------------------------------------
  free energy    TOTEN  =       -20.82808081 eV

  energy without entropy =      -20.82755508  energy(sigma->0) =      -20.82790557


--------------------------------------------------------------------------------------------------------




--------------------------------------- Iteration      1(   9)  ---------------------------------------


    POTLOK:  cpu time      0.0461: real time      0.0462
    SETDIJ:  cpu time      0.4304: real time      0.4304
     EDDAV:  cpu time      5.3903: real time      5.3915
       DOS:  cpu time      0.0012: real time      0.0012
    CHARGE:  cpu time      0.4548: real time      0.4551
    MIXING:  cpu time      0.0015: real time      0.0015
    --------------------------------------------
      LOOP:  cpu time      6.3243: real time      6.3260

 eigenvalue-minimisations  : 14296
 total energy-change (2. order) :-0.4953945E-03  (-0.2611565E-03)
 number of electron      64.0000003 magnetization       1.0683105
 augmentation part       30.6864968 magnetization       0.6842395

 Broyden mixing:
  rms(total) = 0.86403E-02    rms(broyden)= 0.86317E-02
  rms(prec ) = 0.99402E-02
  weight for this iteration     100.00

 eigenvalues of (default mixing * dielectric matrix)
  average eigenvalue GAMMA=   1.2521
  2.5826  0.9518  0.8589  0.6151

 Free energy of the ion-electron system (eV)
  ---------------------------------------------------
  alpha Z        PSCENC =       542.73305656
  Ewald energy   TEWEN  =     -8629.09612564
  -Hartree energ DENC   =     -2153.59374684
  -exchange      EXHF   =         0.00000000
  -V(xc)+E(xc)   XCENC  =       328.11064707
  PAW double counting   =      9578.72931957    -9474.02688697
  entropy T*S    EENTRO =        -0.00049445
  eigenvalues    EBANDS =      -699.88579049
  atomic energy  EATOM  =     10486.20144499
  Solvation  Ediel_sol  =         0.00000000
  ---------------------------------------------------
  free energy    TOTEN  =       -20.82857620 eV

  energy without entropy =      -20.82808175  energy(sigma->0) =      -20.82841138


--------------------------------------------------------------------------------------------------------




--------------------------------------- Iteration      1(  10)  ---------------------------------------


    POTLOK:  cpu time      0.0447: real time      0.0448
    SETDIJ:  cpu time      0.4301: real time      0.4301
     EDDAV:  cpu time      5.5646: real time      5.5664
       DOS:  cpu time      0.0012: real time      0.0012
    CHARGE:  cpu time      0.4663: real time      0.4663
    MIXING:  cpu time      0.0016: real time      0.0016
    --------------------------------------------
      LOOP:  cpu time      6.5085: real time      6.5104

 eigenvalue-minimisations  : 15128
 total energy-change (2. order) :-0.2492789E-03  (-0.2962178E-04)
 number of electron      64.0000003 magnetization       1.0481285
 augmentation part       30.6878654 magnetization       0.6741463

 Broyden mixing:
  rms(total) = 0.84204E-02    rms(broyden)= 0.84187E-02
  rms(prec ) = 0.93844E-02
  weight for this iteration     100.00

 eigenvalues of (default mixing * dielectric matrix)
  average eigenvalue GAMMA=   1.0952
  2.5951  0.9425  0.9425  0.6073  0.3883

 Free energy of the ion-electron system (eV)
  ---------------------------------------------------
  alpha Z        PSCENC =       542.73305656
  Ewald energy   TEWEN  =     -8629.09612564
  -Hartree energ DENC   =     -2153.63692205
  -exchange      EXHF   =         0.00000000
  -V(xc)+E(xc)   XCENC  =       328.11116246
  PAW double counting   =      9583.33948144    -9478.51676044
  entropy T*S    EENTRO =        -0.00045242
  eigenvalues    EBANDS =      -699.96371038
  atomic energy  EATOM  =     10486.20144499
  Solvation  Ediel_sol  =         0.00000000
  ---------------------------------------------------
  free energy    TOTEN  =       -20.82882548 eV

  energy without entropy =      -20.82837306  energy(sigma->0) =      -20.82867467


--------------------------------------------------------------------------------------------------------




--------------------------------------- Iteration      1(  11)  ---------------------------------------


    POTLOK:  cpu time      0.0451: real time      0.0452
    SETDIJ:  cpu time      0.4293: real time      0.4293
     EDDAV:  cpu time      5.9698: real time      5.9710
       DOS:  cpu time      0.0012: real time      0.0012
    CHARGE:  cpu time      0.6983: real time      0.6984
    MIXING:  cpu time      0.0018: real time      0.0018
    --------------------------------------------
      LOOP:  cpu time      7.1455: real time      7.1469

 eigenvalue-minimisations  : 14656
 total energy-change (2. order) :-0.5072234E-04  (-0.2727279E-05)
 number of electron      64.0000003 magnetization       0.9696537
 augmentation part       30.6879348 magnetization       0.6013875

 Broyden mixing:
  rms(total) = 0.67939E-02    rms(broyden)= 0.67934E-02
  rms(prec ) = 0.74783E-02
  weight for this iteration     100.00

 eigenvalues of (default mixing * dielectric matrix)
  average eigenvalue GAMMA=   1.5443
  3.2612  2.5154  1.1732  0.9693  0.6199  0.7268

 Free energy of the ion-electron system (eV)
  ---------------------------------------------------
  alpha Z        PSCENC =       542.73305656
  Ewald energy   TEWEN  =     -8629.09612564
  -Hartree energ DENC   =     -2153.73108156
  -exchange      EXHF   =         0.00000000
  -V(xc)+E(xc)   XCENC  =       328.11416949
  PAW double counting   =      9584.47744987    -9479.56425371
  entropy T*S    EENTRO =        -0.00039662
  eigenvalues    EBANDS =      -699.96313957
  atomic energy  EATOM  =     10486.20144499
  Solvation  Ediel_sol  =         0.00000000
  ---------------------------------------------------
  free energy    TOTEN  =       -20.82887620 eV

  energy without entropy =      -20.82847958  energy(sigma->0) =      -20.82874400


--------------------------------------------------------------------------------------------------------




--------------------------------------- Iteration      1(  12)  ---------------------------------------


    POTLOK:  cpu time      0.0457: real time      0.0457
    SETDIJ:  cpu time      0.4300: real time      0.4300
     EDDAV:  cpu time      5.3349: real time      5.3360
       DOS:  cpu time      0.0012: real time      0.0012
    CHARGE:  cpu time      0.4633: real time      0.4634
    MIXING:  cpu time      0.0017: real time      0.0017
    --------------------------------------------
      LOOP:  cpu time      6.2767: real time      6.2781

 eigenvalue-minimisations  : 14112
 total energy-change (2. order) :-0.6650801E-04  (-0.1523964E-04)
 number of electron      64.0000003 magnetization       0.9653589
 augmentation part       30.6876504 magnetization       0.6176097

 Broyden mixing:
  rms(total) = 0.87341E-03    rms(broyden)= 0.86353E-03
  rms(prec ) = 0.10697E-02
  weight for this iteration     100.00

 eigenvalues of (default mixing * dielectric matrix)
  average eigenvalue GAMMA=   1.4622
  3.5102  2.5207  1.1795  0.9637  0.7484  0.6235  0.6896

 Free energy of the ion-electron system (eV)
  ---------------------------------------------------
  alpha Z        PSCENC =       542.73305656
  Ewald energy   TEWEN  =     -8629.09612564
  -Hartree energ DENC   =     -2154.01879161
  -exchange      EXHF   =         0.00000000
  -V(xc)+E(xc)   XCENC  =       328.12315810
  PAW double counting   =      9586.71896460    -9481.56539257
  entropy T*S    EENTRO =        -0.00016109
  eigenvalues    EBANDS =      -699.92509605
  atomic energy  EATOM  =     10486.20144499
  Solvation  Ediel_sol  =         0.00000000
  ---------------------------------------------------
  free energy    TOTEN  =       -20.82894271 eV

  energy without entropy =      -20.82878162  energy(sigma->0) =      -20.82888901


--------------------------------------------------------------------------------------------------------




--------------------------------------- Iteration      1(  13)  ---------------------------------------


    POTLOK:  cpu time      0.0463: real time      0.0464
    SETDIJ:  cpu time      0.4347: real time      0.4348
     EDDAV:  cpu time      5.4810: real time      5.4822
       DOS:  cpu time      0.0012: real time      0.0012
    CHARGE:  cpu time      0.4525: real time      0.4526
    MIXING:  cpu time      0.0016: real time      0.0016
    --------------------------------------------
      LOOP:  cpu time      6.4172: real time      6.4186

 eigenvalue-minimisations  : 12520
 total energy-change (2. order) :-0.5956899E-05  (-0.4329969E-06)
 number of electron      64.0000003 magnetization       0.9617503
 augmentation part       30.6876827 magnetization       0.6151624

 Broyden mixing:
  rms(total) = 0.58528E-03    rms(broyden)= 0.58398E-03
  rms(prec ) = 0.73728E-03
  weight for this iteration     100.00

 eigenvalues of (default mixing * dielectric matrix)
  average eigenvalue GAMMA=   1.3793
  3.6817  2.5243  1.1763  0.9417  0.7621  0.6182  0.6653  0.6653

 Free energy of the ion-electron system (eV)
  ---------------------------------------------------
  alpha Z        PSCENC =       542.73305656
  Ewald energy   TEWEN  =     -8629.09612564
  -Hartree energ DENC   =     -2154.00650682
  -exchange      EXHF   =         0.00000000
  -V(xc)+E(xc)   XCENC  =       328.12243329
  PAW double counting   =      9586.47140379    -9481.32653607
  entropy T*S    EENTRO =        -0.00015148
  eigenvalues    EBANDS =      -699.92796729
  atomic energy  EATOM  =     10486.20144499
  Solvation  Ediel_sol  =         0.00000000
  ---------------------------------------------------
  free energy    TOTEN  =       -20.82894867 eV

  energy without entropy =      -20.82879719  energy(sigma->0) =      -20.82889818


--------------------------------------------------------------------------------------------------------




--------------------------------------- Iteration      1(  14)  ---------------------------------------


    POTLOK:  cpu time      0.0448: real time      0.0449
    SETDIJ:  cpu time      0.4300: real time      0.4301
     EDDAV:  cpu time      4.3780: real time      4.3790
       DOS:  cpu time      0.0012: real time      0.0012
    CHARGE:  cpu time      0.4610: real time      0.4611
    MIXING:  cpu time      0.0016: real time      0.0016
    --------------------------------------------
      LOOP:  cpu time      5.3167: real time      5.3178

 eigenvalue-minimisations  :  7440
 total energy-change (2. order) :-0.1294739E-05  (-0.6268829E-07)
 number of electron      64.0000003 magnetization       0.9594368
 augmentation part       30.6877188 magnetization       0.6138912

 Broyden mixing:
  rms(total) = 0.26472E-03    rms(broyden)= 0.26430E-03
  rms(prec ) = 0.37486E-03
  weight for this iteration     100.00

 eigenvalues of (default mixing * dielectric matrix)
  average eigenvalue GAMMA=   1.5006
  3.9059  2.5513  2.1834  1.1112  0.9921  0.6226  0.7393  0.7393  0.6601

 Free energy of the ion-electron system (eV)
  ---------------------------------------------------
  alpha Z        PSCENC =       542.73305656
  Ewald energy   TEWEN  =     -8629.09612564
  -Hartree energ DENC   =     -2153.99083234
  -exchange      EXHF   =         0.00000000
  -V(xc)+E(xc)   XCENC  =       328.12156073
  PAW double counting   =      9586.17070557    -9481.03842040
  entropy T*S    EENTRO =        -0.00013965
  eigenvalues    EBANDS =      -699.93019978
  atomic energy  EATOM  =     10486.20144499
  Solvation  Ediel_sol  =         0.00000000
  ---------------------------------------------------
  free energy    TOTEN  =       -20.82894996 eV

  energy without entropy =      -20.82881031  energy(sigma->0) =      -20.82890341


--------------------------------------------------------------------------------------------------------




--------------------------------------- Iteration      1(  15)  ---------------------------------------


    POTLOK:  cpu time      0.0451: real time      0.0452
    SETDIJ:  cpu time      0.4296: real time      0.4296
     EDDAV:  cpu time      3.6525: real time      3.6542
       DOS:  cpu time      0.0012: real time      0.0012
    CHARGE:  cpu time      0.4682: real time      0.4684
    MIXING:  cpu time      0.0018: real time      0.0018
    --------------------------------------------
      LOOP:  cpu time      4.5983: real time      4.6004

 eigenvalue-minimisations  :  7368
 total energy-change (2. order) :-0.1505560E-05  (-0.2961935E-07)
 number of electron      64.0000003 magnetization       0.9584667
 augmentation part       30.6877472 magnetization       0.6135191

 Broyden mixing:
  rms(total) = 0.12340E-03    rms(broyden)= 0.12320E-03
  rms(prec ) = 0.12551E-03
  weight for this iteration     100.00

 eigenvalues of (default mixing * dielectric matrix)
  average eigenvalue GAMMA=   1.4702
  3.8398  2.6099  2.4708  1.0668  0.9850  0.9850  0.8092  0.6827  0.6325  0.6198

 Free energy of the ion-electron system (eV)
  ---------------------------------------------------
  alpha Z        PSCENC =       542.73305656
  Ewald energy   TEWEN  =     -8629.09612564
  -Hartree energ DENC   =     -2153.96566007
  -exchange      EXHF   =         0.00000000
  -V(xc)+E(xc)   XCENC  =       328.12033858
  PAW double counting   =      9585.74719919    -9480.63708738
  entropy T*S    EENTRO =        -0.00013194
  eigenvalues    EBANDS =      -699.93198576
  atomic energy  EATOM  =     10486.20144499
  Solvation  Ediel_sol  =         0.00000000
  ---------------------------------------------------
  free energy    TOTEN  =       -20.82895147 eV

  energy without entropy =      -20.82881953  energy(sigma->0) =      -20.82890749


--------------------------------------------------------------------------------------------------------




--------------------------------------- Iteration      1(  16)  ---------------------------------------


    POTLOK:  cpu time      0.0475: real time      0.0475
    SETDIJ:  cpu time      0.4326: real time      0.4326
     EDDAV:  cpu time      3.6232: real time      3.6240
       DOS:  cpu time      0.0012: real time      0.0012
    --------------------------------------------
      LOOP:  cpu time      4.1045: real time      4.1053

 eigenvalue-minimisations  :  7272
 total energy-change (2. order) :-0.1562730E-06  (-0.4961917E-08)
 number of electron      64.0000003 magnetization       0.9584667
 augmentation part       30.6877472 magnetization       0.6135191

 Free energy of the ion-electron system (eV)
  ---------------------------------------------------
  alpha Z        PSCENC =       542.73305656
  Ewald energy   TEWEN  =     -8629.09612564
  -Hartree energ DENC   =     -2153.96433109
  -exchange      EXHF   =         0.00000000
  -V(xc)+E(xc)   XCENC  =       328.12023230
  PAW double counting   =      9585.71741779    -9480.60915836
  entropy T*S    EENTRO =        -0.00012905
  eigenvalues    EBANDS =      -699.93135913
  atomic energy  EATOM  =     10486.20144499
  Solvation  Ediel_sol  =         0.00000000
  ---------------------------------------------------
  free energy    TOTEN  =       -20.82895162 eV

  energy without entropy =      -20.82882258  energy(sigma->0) =      -20.82890861


--------------------------------------------------------------------------------------------------------




 average (electrostatic) potential at core
  the test charge radii are     1.0504
  (the norm of the test charge is              1.0000)
       1 -74.6009       2 -74.6009       3 -74.6009       4 -74.6009
 
 
 
 E-fermi :   9.3362     XC(G=0): -13.2453     alpha+bet :-16.2254

 val. band max:        9.3356231594   @ k =   0.4167   0.0833   0.0833
 cond. band min:       9.3368965959   @ k =   0.5000   0.5000   0.4167
 fundamental gap:      0.0012734366
 Fermi energy:         9.3362331212

 spin component 1

 k-point     1 :       0.0000    0.0000    0.0000
  band No.  band energies     occupation 
      1     -40.7607      1.00000
      2     -40.7607      1.00000
      3     -40.7607      1.00000
      4     -40.5424      1.00000
      5     -40.5424      1.00000
      6     -40.5424      1.00000
      7     -40.5424      1.00000
      8     -40.5424      1.00000
      9     -40.5424      1.00000
     10     -40.3991      1.00000
     11     -40.3991      1.00000
     12     -40.3991      1.00000
     13       2.2990      1.00000
     14       4.0275      1.00000
     15       4.0275      1.00000
     16       4.0275      1.00000
     17       4.2743      1.00000
     18       4.2743      1.00000
     19       4.2743      1.00000
     20       6.4617      1.00000
     21       6.4617      1.00000
     22       6.4617      1.00000
     23       8.0469      1.00000
     24       8.0469      1.00000
     25       9.1823      1.02587
     26       9.1823      1.02587
     27       9.1823      1.02587
     28       9.4811     -0.02987
     29       9.4811     -0.02987
     30       9.4811     -0.02987
     31       9.4811     -0.02987
     32       9.4811     -0.02987
     33       9.4811     -0.02987
     34      12.6560      0.00000
     35      12.6560      0.00000
     36      12.6560      0.00000
     37      19.8442      0.00000
     38      19.8442      0.00000
     39      19.8442      0.00000
     40      22.4155      0.00000

 k-point     2 :       0.0833    0.0000    0.0000
  band No.  band energies     occupation 
      1     -40.7570      1.00000
      2     -40.7570      1.00000
      3     -40.7548      1.00000
      4     -40.5462      1.00000
      5     -40.5462      1.00000
      6     -40.5426      1.00000
      7     -40.5426      1.00000
      8     -40.5400      1.00000
      9     -40.5400      1.00000
     10     -40.4056      1.00000
     11     -40.4016      1.00000
     12     -40.4016      1.00000
     13       2.3826      1.00000
     14       4.0668      1.00000
     15       4.0806      1.00000
     16       4.0806      1.00000
     17       4.3058      1.00000
     18       4.3220      1.00000
     19       4.3220      1.00000
     20       6.4167      1.00000
     21       6.4988      1.00000
     22       6.4988      1.00000
     23       8.0003      1.00000
     24       8.0647      1.00000
     25       9.1184      1.00430
     26       9.1184      1.00430
     27       9.1613      1.01644
     28       9.2050      1.03441
     29       9.2050      1.03441
     30       9.4048      0.04523
     31       9.4048      0.04523
     32       9.4812     -0.02981
     33       9.4812     -0.02981
     34      12.2415      0.00000
     35      12.9899      0.00000
     36      12.9899      0.00000
     37      19.8268      0.00000
     38      19.8268      0.00000
     39      20.3601      0.00000
     40      22.2469      0.00000

 k-point     3 :       0.1667    0.0000    0.0000
  band No.  band energies     occupation 
      1     -40.7462      1.00000
      2     -40.7462      1.00000
      3     -40.7375      1.00000
      4     -40.5572      1.00000
      5     -40.5572      1.00000
      6     -40.5431      1.00000
      7     -40.5431      1.00000
      8     -40.5329      1.00000
      9     -40.5329      1.00000
     10     -40.4244      1.00000
     11     -40.4088      1.00000
     12     -40.4088      1.00000
     13       2.6287      1.00000
     14       4.1784      1.00000
     15       4.2339      1.00000
     16       4.2339      1.00000
     17       4.3990      1.00000
     18       4.4645      1.00000
     19       4.4645      1.00000
     20       6.2869      1.00000
     21       6.6094      1.00000
     22       6.6094      1.00000
     23       7.8684      1.00000
     24       8.1173      1.00000
     25       8.5891      1.00000
     26       8.5891      1.00000
     27       8.9346      1.00000
     28       8.9346      1.00000
     29       9.0999      1.00209
     30       9.1899      1.02926
     31       9.1899      1.02926
     32       9.4816     -0.02966
     33       9.4816     -0.02966
     34      11.2609     -0.00000
     35      13.7776      0.00000
     36      13.7776      0.00000
     37      19.7768      0.00000
[...]
     38      17.2369      0.00000
     39      17.2369      0.00000
     40      17.2369      0.00000

 k-point    81 :       0.4167    0.4167    0.4167
  band No.  band energies     occupation 
      1     -40.5623      1.00000
      2     -40.5623      1.00000
      3     -40.5623      1.00000
      4     -40.5479      1.00000
      5     -40.2595      1.00000
      6     -40.2595      1.00000
      7     -40.2595      1.00000
      8     -40.2496      1.00000
      9     -40.2496      1.00000
     10     -40.2496      1.00000
     11     -40.2399      1.00000
     12     -40.2399      1.00000
     13       4.2612      1.00000
     14       4.3877      1.00000
     15       4.3877      1.00000
     16       4.3877      1.00000
     17       6.4628      1.00000
     18       6.4628      1.00000
     19       6.4628      1.00000
     20       6.6494      1.00000
     21       6.6494      1.00000
     22       6.7454      1.00000
     23       6.7454      1.00000
     24       6.7454      1.00000
     25       8.4232      1.00000
     26       8.4232      1.00000
     27       8.4232      1.00000
     28       9.2230      1.03396
     29       9.2230      1.03396
     30       9.3574      0.32555
     31       9.4026      0.05330
     32       9.4026      0.05330
     33       9.4026      0.05330
     34      11.3161     -0.00000
     35      11.3161     -0.00000
     36      11.3161     -0.00000
     37      16.7166      0.00000
     38      16.7166      0.00000
     39      16.7166      0.00000
     40      17.8936      0.00000

 k-point    82 :       0.5000    0.4167    0.4167
  band No.  band energies     occupation 
      1     -40.5669      1.00000
      2     -40.5669      1.00000
      3     -40.5598      1.00000
      4     -40.5598      1.00000
      5     -40.2571      1.00000
      6     -40.2571      1.00000
      7     -40.2473      1.00000
      8     -40.2473      1.00000
      9     -40.2449      1.00000
     10     -40.2449      1.00000
     11     -40.2447      1.00000
     12     -40.2447      1.00000
     13       4.2818      1.00000
     14       4.2818      1.00000
     15       4.3444      1.00000
     16       4.3444      1.00000
     17       6.4921      1.00000
     18       6.4921      1.00000
     19       6.5790      1.00000
     20       6.5790      1.00000
     21       6.6600      1.00000
     22       6.6600      1.00000
     23       6.6982      1.00000
     24       6.6982      1.00000
     25       8.6462      1.00000
     26       8.6462      1.00000
     27       8.8575      1.00000
     28       8.8575      1.00000
     29       9.3644      0.27200
     30       9.3644      0.27200
     31       9.3718      0.21936
     32       9.3718      0.21936
     33      10.3042     -0.00000
     34      10.3042     -0.00000
     35      11.2609     -0.00000
     36      11.2609     -0.00000
     37      16.5357      0.00000
     38      16.5357      0.00000
     39      17.2022      0.00000
     40      17.2022      0.00000

 k-point    83 :       0.5000    0.5000    0.4167
  band No.  band energies     occupation 
      1     -40.5682      1.00000
      2     -40.5682      1.00000
      3     -40.5682      1.00000
      4     -40.5682      1.00000
      5     -40.2486      1.00000
      6     -40.2486      1.00000
      7     -40.2486      1.00000
      8     -40.2486      1.00000
      9     -40.2436      1.00000
     10     -40.2436      1.00000
     11     -40.2436      1.00000
     12     -40.2436      1.00000
     13       4.2676      1.00000
     14       4.2676      1.00000
     15       4.2676      1.00000
     16       4.2676      1.00000
     17       6.5687      1.00000
     18       6.5687      1.00000
     19       6.5687      1.00000
     20       6.5687      1.00000
     21       6.6307      1.00000
     22       6.6307      1.00000
     23       6.6307      1.00000
     24       6.6307      1.00000
     25       9.0326      1.00008
     26       9.0326      1.00008
     27       9.0326      1.00008
     28       9.0326      1.00008
     29       9.3369      0.49439
     30       9.3369      0.49439
     31       9.3369      0.49439
     32       9.3369      0.49439
     33      10.6394     -0.00000
     34      10.6394     -0.00000
     35      10.6394     -0.00000
     36      10.6394     -0.00000
     37      16.7178      0.00000
     38      16.7178      0.00000
     39      16.7178      0.00000
     40      16.7178      0.00000

 k-point    84 :       0.5000    0.5000    0.5000
  band No.  band energies     occupation 
      1     -40.5732      1.00000
      2     -40.5732      1.00000
      3     -40.5732      1.00000
      4     -40.5732      1.00000
      5     -40.2436      1.00000
      6     -40.2436      1.00000
      7     -40.2436      1.00000
      8     -40.2436      1.00000
      9     -40.2436      1.00000
     10     -40.2436      1.00000
     11     -40.2436      1.00000
     12     -40.2436      1.00000
     13       4.2199      1.00000
     14       4.2199      1.00000
     15       4.2199      1.00000
     16       4.2199      1.00000
     17       6.5924      1.00000
     18       6.5924      1.00000
     19       6.5924      1.00000
     20       6.5924      1.00000
     21       6.5924      1.00000
     22       6.5924      1.00000
     23       6.5924      1.00000
     24       6.5924      1.00000
     25       9.3915      0.10236
     26       9.3915      0.10236
     27       9.3915      0.10236
     28       9.3915      0.10236
     29       9.3915      0.10235
     30       9.3915      0.10235
     31       9.3915      0.10235
     32       9.3915      0.10235
     33      10.3572     -0.00000
     34      10.3572     -0.00000
     35      10.3572     -0.00000
     36      10.3572     -0.00000
     37      16.5434      0.00000
     38      16.5434      0.00000
     39      16.5434      0.00000
     40      16.5434      0.00000


--------------------------------------------------------------------------------------------------------


 soft charge-density along one line, spin component            1
         0         1         2         3         4         5         6         7         8         9
 total charge-density along one line
 
 soft charge-density along one line, spin component            2
         0         1         2         3         4         5         6         7         8         9
 total charge-density along one line
 
 pseudopotential strength for first ion, spin component:            1
-37.305  -0.000  -0.000   8.282   0.000   0.000  -0.000   0.000
 -0.000 -37.305  -0.000   0.000   8.282   0.000   0.000   0.000
 -0.000  -0.000 -37.305   0.000   0.000   8.282   0.000   0.000
  8.282   0.000   0.000   7.865  -0.000  -0.000   0.000  -0.000
  0.000   8.282   0.000  -0.000   7.865  -0.000  -0.000  -0.000
  0.000   0.000   8.282  -0.000  -0.000   7.865  -0.000  -0.000
 -0.000   0.000   0.000   0.000  -0.000  -0.000  -2.362  -0.000
  0.000   0.000   0.000  -0.000  -0.000  -0.000  -0.000  -2.362
 -0.000   0.000   0.000   0.000  -0.000  -0.000  -0.000   0.000
  0.000  -0.000   0.000  -0.000   0.000  -0.000  -0.000  -0.000
 -0.000   0.000  -0.000   0.000  -0.000  -0.000  -0.000   0.000
 -0.000   0.000   0.000   0.000  -0.000  -0.000  -2.019  -0.000
  0.000   0.000   0.000  -0.000  -0.000  -0.000  -0.000  -2.019
 -0.000   0.000   0.000   0.000  -0.000  -0.000  -0.000   0.000
  0.000  -0.000   0.000  -0.000   0.000  -0.000  -0.000  -0.000
 -0.000   0.000  -0.000   0.000  -0.000  -0.000  -0.000   0.000
 -0.000  -0.000   0.000  -0.000  -0.000   0.000   0.000   0.000
 -0.000  -0.000   0.000  -0.000  -0.000   0.000   0.000   0.000
 pseudopotential strength for first ion, spin component:            2
-37.191  -0.000  -0.000   8.223   0.000   0.000  -0.000   0.000
 -0.000 -37.191  -0.000   0.000   8.223   0.000   0.000   0.000
 -0.000  -0.000 -37.191   0.000   0.000   8.223   0.000   0.000
  8.223   0.000   0.000   7.881  -0.000  -0.000   0.000  -0.000
  0.000   8.223   0.000  -0.000   7.881  -0.000  -0.000  -0.000
  0.000   0.000   8.223  -0.000  -0.000   7.881  -0.000  -0.000
 -0.000   0.000   0.000   0.000  -0.000  -0.000  -2.238  -0.000
  0.000   0.000   0.000  -0.000  -0.000  -0.000  -0.000  -2.238
 -0.000   0.000   0.000   0.000  -0.000  -0.000  -0.000   0.000
  0.000  -0.000   0.000  -0.000   0.000  -0.000  -0.000  -0.000
 -0.000   0.000   0.000   0.000  -0.000  -0.000  -0.000   0.000
 -0.000   0.000   0.000   0.000  -0.000  -0.000  -1.881  -0.000
  0.000   0.000   0.000  -0.000  -0.000  -0.000  -0.000  -1.881
 -0.000   0.000   0.000   0.000  -0.000  -0.000  -0.000   0.000
  0.000  -0.000   0.000  -0.000   0.000  -0.000  -0.000  -0.000
 -0.000   0.000   0.000   0.000  -0.000  -0.000  -0.000   0.000
 -0.000  -0.000   0.000  -0.000  -0.000   0.000   0.000   0.000
 -0.000  -0.000   0.000  -0.000  -0.000   0.000   0.000   0.000
 total augmentation occupancy for first ion, spin component:            1
  1.998   0.000   0.000  -0.014  -0.000  -0.000   0.000   0.000  -0.000  -0.000   0.000  -0.000  -0.000   0.000  -0.000   0.000
  0.000   1.998   0.000  -0.000  -0.014  -0.000  -0.000  -0.000  -0.000   0.000  -0.000   0.000   0.000  -0.000  -0.000  -0.000
  0.000   0.000   1.998  -0.000  -0.000  -0.014   0.000   0.000  -0.000  -0.000  -0.000  -0.000  -0.000   0.000   0.000   0.000
 -0.014  -0.000  -0.000   0.104   0.000   0.000  -0.000  -0.000   0.000   0.000  -0.000   0.000  -0.000  -0.000   0.000  -0.000
 -0.000  -0.014  -0.000   0.000   0.104   0.000  -0.000  -0.000  -0.000  -0.000  -0.000   0.000   0.000   0.000   0.000  -0.000
 -0.000  -0.000  -0.014   0.000   0.000   0.104   0.000   0.000  -0.000  -0.000   0.000   0.000   0.000  -0.000   0.000   0.000
  0.000  -0.000   0.000  -0.000  -0.000   0.000   2.761   0.000  -0.000   0.000   0.000  -0.739  -0.000   0.000  -0.000  -0.000
  0.000  -0.000   0.000  -0.000  -0.000   0.000   0.000   2.761   0.000   0.000  -0.000  -0.000  -0.739  -0.000  -0.000   0.000
 -0.000  -0.000  -0.000   0.000   0.000  -0.000  -0.000   0.000   2.533   0.000   0.000   0.000  -0.000  -0.547  -0.000  -0.000
 -0.000   0.000  -0.000   0.000  -0.000  -0.000   0.000   0.000   0.000   2.761   0.000  -0.000  -0.000  -0.000  -0.739  -0.000
  0.000  -0.000   0.000   0.000  -0.000   0.000   0.000  -0.000   0.000   0.000   2.533  -0.000   0.000  -0.000  -0.000  -0.547
 -0.000   0.000  -0.000   0.000   0.000   0.000  -0.739  -0.000   0.000  -0.000  -0.000   0.473   0.000  -0.000   0.000   0.000
 -0.000   0.000  -0.000  -0.000   0.000   0.000  -0.000  -0.739  -0.000  -0.000   0.000   0.000   0.473   0.000   0.000  -0.000
  0.000   0.000  -0.000   0.000  -0.000  -0.000   0.000  -0.000  -0.547  -0.000  -0.000  -0.000   0.000   0.428   0.000   0.000
 -0.000  -0.000   0.000   0.000   0.000   0.000  -0.000  -0.000  -0.000  -0.739  -0.000   0.000   0.000   0.000   0.473   0.000
  0.000  -0.000   0.000   0.000  -0.000   0.000  -0.000   0.000  -0.000  -0.000  -0.547   0.000  -0.000   0.000   0.000   0.428
  0.000  -0.000   0.000   0.000   0.000   0.000   0.000   0.000  -0.000  -0.000   0.000  -0.000  -0.000  -0.000   0.000  -0.000
  0.000   0.000   0.000   0.000  -0.000  -0.000  -0.000  -0.000  -0.000   0.000  -0.000   0.000  -0.000   0.000  -0.000   0.000
 total augmentation occupancy for first ion, spin component:            2
  0.000   0.000   0.000   0.000   0.000   0.000  -0.000   0.000  -0.000   0.000   0.000   0.000   0.000  -0.000   0.000   0.000
  0.000   0.000   0.000   0.000   0.000  -0.000   0.000   0.000  -0.000  -0.000   0.000  -0.000  -0.000  -0.000  -0.000   0.000
  0.000   0.000   0.000   0.000  -0.000   0.000   0.000   0.000  -0.000   0.000   0.000  -0.000   0.000   0.000  -0.000  -0.000
  0.000   0.000   0.000  -0.002  -0.000  -0.000   0.000  -0.000   0.000  -0.000   0.000   0.000  -0.000   0.000   0.000   0.000
  0.000   0.000  -0.000  -0.000  -0.002  -0.000   0.000  -0.000  -0.000  -0.000   0.000  -0.000  -0.000   0.000   0.000   0.000
  0.000  -0.000   0.000  -0.000  -0.000  -0.002  -0.000   0.000  -0.000   0.000  -0.000  -0.000  -0.000  -0.000   0.000   0.000
 -0.000   0.000   0.000   0.000   0.000  -0.000  -0.039  -0.000   0.000  -0.000  -0.000   0.041   0.000  -0.000   0.000   0.000
  0.000   0.000   0.000  -0.000  -0.000   0.000  -0.000  -0.039  -0.000  -0.000   0.000   0.000   0.041   0.000   0.000  -0.000
 -0.000  -0.000   0.000   0.000  -0.000  -0.000   0.000  -0.000  -0.029  -0.000  -0.000  -0.000   0.000   0.024   0.000   0.000
  0.000  -0.000   0.000  -0.000  -0.000   0.000  -0.000  -0.000  -0.000  -0.039  -0.000   0.000   0.000   0.000   0.041   0.000
 -0.000  -0.000  -0.000   0.000  -0.000  -0.000  -0.000   0.000  -0.000  -0.000  -0.029   0.000  -0.000   0.000   0.000   0.024
  0.000  -0.000  -0.000   0.000  -0.000  -0.000   0.041   0.000  -0.000   0.000   0.000   0.025   0.000  -0.000   0.000   0.000
  0.000  -0.000   0.000  -0.000  -0.000  -0.000   0.000   0.041   0.000   0.000  -0.000   0.000   0.025   0.000   0.000  -0.000
 -0.000  -0.000   0.000   0.000  -0.000   0.000  -0.000   0.000   0.024   0.000   0.000  -0.000   0.000   0.008   0.000   0.000
  0.000  -0.000  -0.000   0.000   0.000   0.000   0.000   0.000   0.000   0.041   0.000   0.000   0.000   0.000   0.025  -0.000
 -0.000   0.000   0.000   0.000   0.000  -0.000   0.000  -0.000   0.000   0.000   0.024   0.000   0.000   0.000  -0.000   0.008
  0.000  -0.000  -0.000  -0.000   0.000   0.000   0.000  -0.000  -0.000  -0.000  -0.000   0.000   0.000   0.000   0.000   0.000
 -0.000   0.000   0.000   0.000  -0.000  -0.000   0.000   0.000   0.000   0.000   0.000  -0.000   0.000   0.000   0.000  -0.000


------------------------ aborting loop because EDIFF is reached ----------------------------------------





 total charge

# of ion       s       p       d       tot
------------------------------------------
    1        0.315   6.173   7.979  14.467
    2        0.315   6.173   7.979  14.467
    3        0.315   6.173   7.979  14.467
    4        0.315   6.173   7.979  14.467
--------------------------------------------------
tot          1.259  24.691  31.917  57.867



 magnetization (x)

# of ion       s       p       d       tot
------------------------------------------
    1       -0.002  -0.003   0.254   0.249
    2       -0.002  -0.003   0.254   0.249
    3       -0.002  -0.003   0.254   0.249
    4       -0.002  -0.003   0.254   0.249
--------------------------------------------------
tot         -0.007  -0.012   1.017   0.998
 
    CHARGE:  cpu time      0.4524: real time      0.4524
    FORLOC:  cpu time      0.0010: real time      0.0010
    FORNL :  cpu time      1.1653: real time      1.1655
    FORCOR:  cpu time      0.4751: real time      0.4751
    FORHAR:  cpu time      0.0048: real time      0.0048
    MIXING:  cpu time      0.0016: real time      0.0016
    OFIELD:  cpu time      0.0000: real time      0.0000

 ---------------------------------------------------------------------------------------------

         DFTD3 V3.0 Rev 1        
 DF pbe       
 parameters
 k1-k3        =   16.0000    1.3333   -4.0000
 Edisp (eV)   -2.62093

 E6    (eV) :    -1.4629
 E8    (eV) :    -1.1581
 % E8        : 44.19
    FORVDW:  cpu time      0.0073: real time      0.0073

 VOLUME and BASIS-vectors are now :
 -----------------------------------------------------------------------------
  energy-cutoff  :      600.00
  volume of cell :       60.11
      direct lattice vectors                 reciprocal lattice vectors
     3.917301575  0.000000000  0.000000000     0.255277767 -0.000000000  0.000000000
     0.000000000  3.917301575  0.000000000     0.000000000  0.255277767  0.000000000
     0.000000000  0.000000000  3.917301575    -0.000000000 -0.000000000  0.255277767

  length of vectors
     3.917301575  3.917301575  3.917301575     0.255277767  0.255277767  0.255277767


 FORCES acting on ions
    electron-ion (+dipol)            ewald-force                    non-local-force                 convergence-correction
 -----------------------------------------------------------------------------------------------
   0.177E-13 -.104E-13 -.569E-13   -.366E-13 -.348E-13 0.417E-14   -.199E-25 -.258E-25 0.103E-24   0.167E-13 -.719E-14 0.131E-13
   0.177E-13 0.365E-12 0.319E-12   -.388E-13 0.552E-14 0.106E-13   -.200E-26 -.517E-25 -.103E-24   0.188E-13 -.159E-13 0.882E-14
   0.386E-12 -.173E-13 -.930E-11   0.424E-13 -.761E-14 0.104E-13   0.134E-24 0.517E-25 0.517E-25   0.217E-13 -.383E-14 -.368E-14
   0.386E-12 -.576E-11 -.755E-11   0.402E-13 0.327E-13 -.238E-13   -.187E-24 0.775E-25 0.362E-24   0.171E-13 -.114E-13 0.130E-14
 -----------------------------------------------------------------------------------------------
   0.808E-12 -.542E-11 -.166E-10   0.725E-14 -.417E-14 0.136E-14   -.746E-25 0.517E-25 0.414E-24   0.742E-13 -.384E-13 0.196E-13
 
 
 POSITION                                       TOTAL-FORCE (eV/Angst)
 -----------------------------------------------------------------------------------
      0.00000      0.00000      0.00000         0.000000     -0.000000     -0.000000
      0.00000      1.95865      1.95865         0.000000     -0.000000     -0.000000
      1.95865      0.00000      1.95865         0.000000     -0.000000     -0.000000
      1.95865      1.95865      0.00000        -0.000000      0.000000      0.000000
 -----------------------------------------------------------------------------------
    total drift:                                0.000000     -0.000000     -0.000000


--------------------------------------------------------------------------------------------------------



  FREE ENERGIE OF THE ION-ELECTRON SYSTEM (eV)
  ---------------------------------------------------
  free  energy   TOTEN  =       -23.44987692 eV

  energy  without entropy=      -23.44974787  energy(sigma->0) =      -23.44983390
 


--------------------------------------------------------------------------------------------------------


    POTLOK:  cpu time      0.4692: real time      0.4693


--------------------------------------------------------------------------------------------------------


     LOOP+:  cpu time     96.7997: real time     97.1814
    4ORBIT:  cpu time      0.0000: real time      0.0000



 total charge

# of ion       s       p       d       tot
------------------------------------------
    1        0.315   6.173   7.979  14.467
    2        0.315   6.173   7.979  14.467
    3        0.315   6.173   7.979  14.467
    4        0.315   6.173   7.979  14.467
--------------------------------------------------
tot          1.259  24.691  31.917  57.867



 magnetization (x)

# of ion       s       p       d       tot
------------------------------------------
    1       -0.002  -0.003   0.254   0.249
    2       -0.002  -0.003   0.254   0.249
    3       -0.002  -0.003   0.254   0.249
    4       -0.002  -0.003   0.254   0.249
--------------------------------------------------
tot         -0.007  -0.012   1.017   0.998
 

 total amount of memory used by VASP MPI-rank0   128560. kBytes
=======================================================================

   base      :      30000. kBytes
   nonl-proj :      24660. kBytes
   fftplans  :       9841. kBytes
   grid      :       7487. kBytes
   one-center:        124. kBytes
   wavefun   :      56448. kBytes
 
  
  
 General timing and accounting informations for this job:
 ========================================================
  
                  Total CPU time used (sec):       98.452
                            User time (sec):       95.065
                          System time (sec):        3.388
                         Elapsed time (sec):       99.002
  
                   Maximum memory used (kb):      417324.
                   Average memory used (kb):          N/A
  
                          Minor page faults:       649286
                          Major page faults:            2
                 Voluntary context switches:          838
