       N       E                     dE             d eps       ncg     rms          rms(c)
DAV:   1     0.539061315057E+03    0.53906E+03   -0.31807E+04  7608   0.154E+03
DAV:   2    -0.111058498859E+02   -0.55017E+03   -0.53005E+03  8396   0.457E+02
DAV:   3    -0.406207924322E+02   -0.29515E+02   -0.29212E+02  7880   0.111E+02
DAV:   4    -0.409749041958E+02   -0.35411E+00   -0.35367E+00  8012   0.132E+01
DAV:   5    -0.409789339243E+02   -0.40297E-02   -0.40294E-02  7724   0.141E+00    0.281E+01
DAV:   6    -0.355979916149E+02    0.53809E+01   -0.51219E+01  7708   0.651E+01    0.156E+01
DAV:   7    -0.322003576127E+02    0.33976E+01   -0.15607E+01  7536   0.357E+01    0.539E+00
DAV:   8    -0.321429350311E+02    0.57423E-01   -0.12667E+00  7616   0.654E+00    0.300E+00
DAV:   9    -0.321232228174E+02    0.19712E-01   -0.12958E-01  7824   0.324E+00    0.850E-01
DAV:  10    -0.321206031894E+02    0.26196E-02   -0.17660E-02  7620   0.126E+00    0.275E-01
DAV:  11    -0.321206427566E+02   -0.39567E-04   -0.20352E-03  7668   0.364E-01    0.117E-01
DAV:  12    -0.321206041646E+02    0.38592E-04   -0.20726E-04  7728   0.942E-02    0.525E-02
DAV:  13    -0.321206193213E+02   -0.15157E-04   -0.80366E-05  7680   0.527E-02    0.126E-02
DAV:  14    -0.321206216930E+02   -0.23717E-05   -0.32134E-06  6612   0.137E-02    0.485E-03
DAV:  15    -0.321206214490E+02    0.24400E-06   -0.74448E-07  4512   0.720E-03
   1 F= -.33534641E+02 E0= -.33532116E+02  d E =-.504955E-02  mag=    -0.3269
