 vasp.6.4.3 19Mar24 (build Nov 27 2025 15:18:09) complex                         
 executed on              LinuxNV date 2026.06.04  16:44:12
 running    4 mpi-ranks, with    1 threads/rank, on    1 nodes
 distrk:  each k-point on    4 cores,    1 groups
 distr:  one band on NCORE=   1 cores,    4 groups
 OpenACC runtime initialized ...    0 GPUs detected


--------------------------------------------------------------------------------------------------------


 INCAR:
   SYSTEM = pddmc
   ENCUT = 450
   PREC = Accurate
   LASPH = .TRUE.
   ADDGRID = .TRUE.
   ISPIN = 2
   IVDW = 12
   EDIFF = 1e-06
   NELM = 200
   NELMIN = 5
   ALGO = Normal
   NCORE = 1
   LREAL = .FALSE.
   LWAVE = .FALSE.
   LCHARG = .FALSE.
   LORBIT = 11
   ISYM = 2
   IBRION = -1
   NSW = 0
   ISIF = 0
   ISMEAR = 0
   SIGMA = 0.05
   EDIFFG = -0.01

 POTCAR:    PAW_PBE Pd_pv 28Jan2005               
 POTCAR:    PAW_PBE O 08Apr2002                   
 -----------------------------------------------------------------------------
|                                                                             |
|           W    W    AA    RRRRR   N    N  II  N    N   GGGG   !!!           |
|           W    W   A  A   R    R  NN   N  II  NN   N  G    G  !!!           |
|           W    W  A    A  R    R  N N  N  II  N N  N  G       !!!           |
|           W WW W  AAAAAA  RRRRR   N  N N  II  N  N N  G  GGG   !            |
|           WW  WW  A    A  R   R   N   NN  II  N   NN  G    G                |
|           W    W  A    A  R    R  N    N  II  N    N   GGGG   !!!           |
|                                                                             |
|     You use a magnetic or noncollinear calculation, but did not specify     |
|     the initial magnetic moment with the MAGMOM tag. Note that a            |
|     default of 1 will be used for all atoms. This ferromagnetic setup       |
|     may break the symmetry of the crystal, in particular it may rule        |
|     out finding an antiferromagnetic solution. Thence, we recommend         |
|     setting the initial magnetic moment manually or verifying carefully     |
|     that this magnetic setup is desired.                                    |
|                                                                             |
 -----------------------------------------------------------------------------

 POTCAR:    PAW_PBE Pd_pv 28Jan2005               
   SHA256 =  3ce661545bbde58da9a95410dea32907db2844916708bcd35bbe03ee66324d7f Pd_pv/POTCAR          
   COPYR  = (c) Copyright 28Jan2005 Georg Kresse                                                    
   COPYR  = This file is part of the software VASP. Any use, copying, and all other rights are regul
   COPYR  = If you do not have a valid VASP license, you may not use, copy or distribute this file. 
   VRHFIN =Pd: 4p5s4d                                                                               
   LEXCH  = PE                                                                                      
   EATOM  =  2621.5550 eV,  192.6789 Ry                                                             
                                                                                                    
   TITEL  = PAW_PBE Pd_pv 28Jan2005                                                                 
   LULTRA =        F    use ultrasoft PP ?                                                          
   IUNSCR =        1    unscreen: 0-lin 1-nonlin 2-no                                               
   RPACOR =    2.250    partial core radius                                                         
   POMASS =  106.420; ZVAL   =   16.000    mass and valenz                                          
   RCORE  =    2.400    outmost cutoff radius                                                       
   RWIGS  =    2.300; RWIGS  =    1.217    wigner-seitz radius (au A)                               
   ENMAX  =  250.925; ENMIN  =  188.194 eV                                                          
   ICORE  =        3    local potential                                                             
   LCOR   =        T    correct aug charges                                                         
   LPAW   =        T    paw PP                                                                      
   EAUG   =  473.067                                                                                
   DEXC   =    0.000                                                                                
   RMAX   =    2.449    core radius for proj-oper                                                   
   RAUG   =    1.300    factor for augmentation sphere                                              
   RDEP   =    2.405    radius for radial grids                                                     
   RDEPT  =    1.966    core radius for aug-charge                                                  
                                                                                                    
   Atomic configuration                                                                             
   11 entries                                                                                       
     n  l   j            E        occ.                                                              
     1  0  0.50    -24164.6632   2.0000                                                             
     2  0  0.50     -3530.9218   2.0000                                                             
     2  1  1.50     -3165.6822   6.0000                                                             
     3  0  0.50      -639.4578   2.0000                                                             
     3  1  1.50      -519.4532   6.0000                                                             
     3  2  2.50      -328.9758  10.0000                                                             
     4  0  0.50       -88.7014   2.0000                                                             
     4  1  1.50       -54.4541   6.0000                                                             
     4  2  2.50        -6.6878   9.0000                                                             
     5  0  0.50        -4.3543   1.0000                                                             
     4  3  2.50        -1.3606   0.0000                                                             
   Description                                                                                      
     l       E           TYP  RCUT    TYP  RCUT                                                     
     1    -54.4540524     23  2.100                                                                 
     1      4.0817478     23  2.100                                                                 
     2     -6.6878326     23  2.400                                                                 
     2     -4.0817478     23  2.400                                                                 
     0     -4.3542962     23  2.400                                                                 
     0     13.6058260     23  2.400                                                                 
     3     -5.4423304     23  2.400                                                                 
  local pseudopotential read in
  partial core-charges read in
  partial kinetic energy density read in
  atomic valenz-charges read in
  non local Contribution for L=            1  read in
    real space projection operators read in
  non local Contribution for L=            1  read in
    real space projection operators read in
  non local Contribution for L=            2  read in
    real space projection operators read in
  non local Contribution for L=            2  read in
    real space projection operators read in
  non local Contribution for L=            0  read in
    real space projection operators read in
  non local Contribution for L=            0  read in
    real space projection operators read in
    PAW grid and wavefunctions read in
 
   number of l-projection  operators is LMAX  =            6
   number of lm-projection operators is LMMAX =           18
 
 POTCAR:    PAW_PBE O 08Apr2002                   
   SHA256 =  818f92134a0a090dccd8ba1447fa70422a3b330e708bb4f08108d8ae51209ddf O/POTCAR              
   COPYR  = (c) Copyright 08Apr2002 Georg Kresse                                                    
   COPYR  = This file is part of the software VASP. Any use, copying, and all other rights are regul
   COPYR  = If you do not have a valid VASP license, you may not use, copy or distribute this file. 
   VRHFIN =O: s2p4                                                                                  
   LEXCH  = PE                                                                                      
   EATOM  =   432.3788 eV,   31.7789 Ry                                                             
                                                                                                    
   TITEL  = PAW_PBE O 08Apr2002                                                                     
   LULTRA =        F    use ultrasoft PP ?                                                          
   IUNSCR =        1    unscreen: 0-lin 1-nonlin 2-no                                               
   RPACOR =    1.200    partial core radius                                                         
   POMASS =   16.000; ZVAL   =    6.000    mass and valenz                                          
   RCORE  =    1.520    outmost cutoff radius                                                       
   RWIGS  =    1.550; RWIGS  =    0.820    wigner-seitz radius (au A)                               
   ENMAX  =  400.000; ENMIN  =  300.000 eV                                                          
   ICORE  =        2    local potential                                                             
   LCOR   =        T    correct aug charges                                                         
   LPAW   =        T    paw PP                                                                      
   EAUG   =  605.392                                                                                
   DEXC   =    0.000                                                                                
   RMAX   =    1.553    core radius for proj-oper                                                   
   RAUG   =    1.300    factor for augmentation sphere                                              
   RDEP   =    1.550    radius for radial grids                                                     
   RDEPT  =    1.329    core radius for aug-charge                                                  
                                                                                                    
   Atomic configuration                                                                             
    4 entries                                                                                       
     n  l   j            E        occ.                                                              
     1  0  0.50      -514.6923   2.0000                                                             
     2  0  0.50       -23.9615   2.0000                                                             
     2  1  0.50        -9.0305   4.0000                                                             
     3  2  1.50        -9.5241   0.0000                                                             
   Description                                                                                      
     l       E           TYP  RCUT    TYP  RCUT                                                     
     0    -23.9615318     23  1.200                                                                 
     0     -9.5240782     23  1.200                                                                 
     1     -9.0304911     23  1.520                                                                 
     1      8.1634956     23  1.520                                                                 
     2     -9.5240782      7  1.500                                                                 
  local pseudopotential read in
  partial core-charges read in
  partial kinetic energy density read in
  kinetic energy density of atom read in
  atomic valenz-charges read in
  non local Contribution for L=            0  read in
    real space projection operators read in
  non local Contribution for L=            0  read in
    real space projection operators read in
  non local Contribution for L=            1  read in
    real space projection operators read in
  non local Contribution for L=            1  read in
    real space projection operators read in
    PAW grid and wavefunctions read in
 
   number of l-projection  operators is LMAX  =            4
   number of lm-projection operators is LMMAX =            8
 
  PAW_PBE Pd_pv 28Jan2005               :
 energy of atom  1       EATOM=-2621.5550
 kinetic energy error for atom=    0.0101 (will be added to EATOM!!)
  PAW_PBE O 08Apr2002                   :
 energy of atom  2       EATOM= -432.3788
 kinetic energy error for atom=    0.0389 (will be added to EATOM!!)
 
 
 POSCAR: Pd O
  positions in cartesian coordinates
  No initial velocities read in
 IVDW         = 12
 VDW_S6       =    1.0000
 VDW_S8       =    0.7875
 VDW_A1       =    0.4289
 VDW_A2       =    4.4407
 VDW_RADIUS   =   50.2022 A
 VDW_CNRADIUS =   21.1671 A


 exchange-correlation table for PE
   RHO(1)=    0.500       N(1)  =     2000
   RHO(2)=  100.500       N(2)  =     4000
 


--------------------------------------------------------------------------------------------------------


 ion  position               nearest neighbor table
   1  0.500  0.500  0.500-   3 1.97   4 1.97   5 2.00   6 2.00   5 2.00   6 2.00
   2  0.000  0.000  0.000-   5 1.97   6 1.97   3 2.00   4 2.00   3 2.00   4 2.00
   3  0.808  0.192  0.500-   1 1.97   2 2.00   2 2.00
   4  0.192  0.808  0.500-   1 1.97   2 2.00   2 2.00
   5  0.308  0.308  0.000-   2 1.97   1 2.00   1 2.00
   6  0.692  0.692  0.000-   2 1.97   1 2.00   1 2.00
 
  LATTYP: Found a simple tetragonal cell.
 ALAT       =     4.5222304600
 C/A-ratio  =     0.6957349162
  
  Lattice vectors:
  
 A1 = (   4.5222304600,   0.0000000000,   0.0000000000)
 A2 = (   0.0000000000,   4.5222304600,   0.0000000000)
 A3 = (   0.0000000000,   0.0000000000,   3.1462736300)


Analysis of symmetry for initial positions (statically):
=====================================================================
 Subroutine PRICEL returns:
 Original cell was already a primitive cell.
 

 Routine SETGRP: Setting up the symmetry group for a 
 simple tetragonal supercell.


 Subroutine GETGRP returns: Found 16 space group operations
 (whereof  8 operations were pure point group operations)
 out of a pool of 16 trial point group operations.


The static configuration has the point symmetry D_2h.
 The point group associated with its full space group is D_4h.


Analysis of symmetry for dynamics (positions and initial velocities):
=====================================================================
 Subroutine PRICEL returns:
 Original cell was already a primitive cell.
 

 Routine SETGRP: Setting up the symmetry group for a 
 simple tetragonal supercell.


 Subroutine GETGRP returns: Found 16 space group operations
 (whereof  8 operations were pure point group operations)
 out of a pool of 16 trial point group operations.


The dynamic configuration has the point symmetry D_2h.
 The point group associated with its full space group is D_4h.


Analysis of structural, dynamic, and magnetic symmetry:
=====================================================================
 Subroutine PRICEL returns:
 Original cell was already a primitive cell.
 

 Routine SETGRP: Setting up the symmetry group for a 
 simple tetragonal supercell.


 Subroutine GETGRP returns: Found 16 space group operations
 (whereof  8 operations were pure point group operations)
 out of a pool of 16 trial point group operations.


The overall configuration has the point symmetry D_2h.
 The point group associated with its full space group is D_4h.


 Subroutine INISYM returns: Found 16 space group operations
 (whereof  8 operations are pure point group operations),
 and found     1 'primitive' translations


----------------------------------------------------------------------------------------

                                     Primitive cell                                     

  volume of cell :      64.3431

  direct lattice vectors                    reciprocal lattice vectors
     4.522230460  0.000000000  0.000000000     0.221129818 -0.000000000  0.000000000
     0.000000000  4.522230460  0.000000000     0.000000000  0.221129818  0.000000000
     0.000000000  0.000000000  3.146273630    -0.000000000 -0.000000000  0.317836310

  length of vectors
     4.522230460  4.522230460  3.146273630     0.221129818  0.221129818  0.317836310

  position of ions in fractional coordinates (direct lattice)
     0.500000000  0.500000000  0.500000000
     0.000000000  0.000000000  0.000000000
     0.808151920  0.191848080  0.500000000
     0.191848080  0.808151920  0.500000000
     0.308151920  0.308151920  1.000000000
     0.691848080  0.691848080  1.000000000

  ion indices of the primitive-cell ions
   primitive index   ion index
                 1           1
                 2           2
                 3           3
                 4           4
                 5           5
                 6           6

----------------------------------------------------------------------------------------

 
 
 KPOINTS: Automatic mesh                          

Automatic generation of k-mesh.
 Grid dimensions read from file:
 generate k-points for:    6    6    8

 Generating k-lattice:

  Cartesian coordinates                     Fractional coordinates (reciprocal lattice)
     0.036854970 -0.000000000  0.000000000     0.166666667 -0.000000000  0.000000000
     0.000000000  0.036854970  0.000000000     0.000000000  0.166666667  0.000000000
    -0.000000000 -0.000000000  0.039729539     0.000000000 -0.000000000  0.125000000

  Length of vectors
     0.036854970  0.036854970  0.039729539

  Shift w.r.t. Gamma in fractional coordinates (k-lattice)
     0.000000000  0.000000000  0.000000000

 
 Subroutine IBZKPT returns following result:
 ===========================================
 
 Found     50 irreducible k-points:
 
 Following reciprocal coordinates:
            Coordinates               Weight
  0.000000  0.000000  0.000000      1.000000
  0.166667  0.000000  0.000000      4.000000
  0.333333  0.000000  0.000000      4.000000
  0.500000  0.000000  0.000000      2.000000
  0.166667  0.166667  0.000000      4.000000
  0.333333  0.166667  0.000000      8.000000
  0.500000  0.166667  0.000000      4.000000
  0.333333  0.333333  0.000000      4.000000
  0.500000  0.333333  0.000000      4.000000
  0.500000  0.500000  0.000000      1.000000
  0.000000  0.000000  0.125000      2.000000
  0.166667  0.000000  0.125000      8.000000
  0.333333  0.000000  0.125000      8.000000
  0.500000  0.000000  0.125000      4.000000
  0.166667  0.166667  0.125000      8.000000
  0.333333  0.166667  0.125000     16.000000
  0.500000  0.166667  0.125000      8.000000
  0.333333  0.333333  0.125000      8.000000
  0.500000  0.333333  0.125000      8.000000
  0.500000  0.500000  0.125000      2.000000
  0.000000  0.000000  0.250000      2.000000
  0.166667  0.000000  0.250000      8.000000
  0.333333  0.000000  0.250000      8.000000
  0.500000  0.000000  0.250000      4.000000
  0.166667  0.166667  0.250000      8.000000
  0.333333  0.166667  0.250000     16.000000
  0.500000  0.166667  0.250000      8.000000
  0.333333  0.333333  0.250000      8.000000
  0.500000  0.333333  0.250000      8.000000
  0.500000  0.500000  0.250000      2.000000
  0.000000  0.000000  0.375000      2.000000
  0.166667  0.000000  0.375000      8.000000
  0.333333  0.000000  0.375000      8.000000
  0.500000  0.000000  0.375000      4.000000
  0.166667  0.166667  0.375000      8.000000
  0.333333  0.166667  0.375000     16.000000
  0.500000  0.166667  0.375000      8.000000
  0.333333  0.333333  0.375000      8.000000
  0.500000  0.333333  0.375000      8.000000
  0.500000  0.500000  0.375000      2.000000
  0.000000  0.000000  0.500000      1.000000
  0.166667  0.000000  0.500000      4.000000
  0.333333  0.000000  0.500000      4.000000
  0.500000  0.000000  0.500000      2.000000
  0.166667  0.166667  0.500000      4.000000
  0.333333  0.166667  0.500000      8.000000
  0.500000  0.166667  0.500000      4.000000
  0.333333  0.333333  0.500000      4.000000
  0.500000  0.333333  0.500000      4.000000
  0.500000  0.500000  0.500000      1.000000
 
 Following cartesian coordinates:
            Coordinates               Weight
  0.000000  0.000000  0.000000      1.000000
  0.036855  0.000000  0.000000      4.000000
  0.073710  0.000000  0.000000      4.000000
  0.110565  0.000000  0.000000      2.000000
  0.036855  0.036855  0.000000      4.000000
  0.073710  0.036855  0.000000      8.000000
  0.110565  0.036855  0.000000      4.000000
  0.073710  0.073710  0.000000      4.000000
  0.110565  0.073710  0.000000      4.000000
  0.110565  0.110565  0.000000      1.000000
  0.000000  0.000000  0.039730      2.000000
  0.036855  0.000000  0.039730      8.000000
  0.073710  0.000000  0.039730      8.000000
  0.110565  0.000000  0.039730      4.000000
  0.036855  0.036855  0.039730      8.000000
  0.073710  0.036855  0.039730     16.000000
  0.110565  0.036855  0.039730      8.000000
  0.073710  0.073710  0.039730      8.000000
  0.110565  0.073710  0.039730      8.000000
  0.110565  0.110565  0.039730      2.000000
  0.000000  0.000000  0.079459      2.000000
  0.036855  0.000000  0.079459      8.000000
  0.073710  0.000000  0.079459      8.000000
  0.110565  0.000000  0.079459      4.000000
  0.036855  0.036855  0.079459      8.000000
  0.073710  0.036855  0.079459     16.000000
  0.110565  0.036855  0.079459      8.000000
  0.073710  0.073710  0.079459      8.000000
  0.110565  0.073710  0.079459      8.000000
  0.110565  0.110565  0.079459      2.000000
  0.000000  0.000000  0.119189      2.000000
  0.036855  0.000000  0.119189      8.000000
  0.073710  0.000000  0.119189      8.000000
  0.110565  0.000000  0.119189      4.000000
  0.036855  0.036855  0.119189      8.000000
  0.073710  0.036855  0.119189     16.000000
  0.110565  0.036855  0.119189      8.000000
  0.073710  0.073710  0.119189      8.000000
  0.110565  0.073710  0.119189      8.000000
  0.110565  0.110565  0.119189      2.000000
  0.000000  0.000000  0.158918      1.000000
  0.036855  0.000000  0.158918      4.000000
  0.073710  0.000000  0.158918      4.000000
  0.110565  0.000000  0.158918      2.000000
  0.036855  0.036855  0.158918      4.000000
  0.073710  0.036855  0.158918      8.000000
  0.110565  0.036855  0.158918      4.000000
  0.073710  0.073710  0.158918      4.000000
  0.110565  0.073710  0.158918      4.000000
  0.110565  0.110565  0.158918      1.000000
 


--------------------------------------------------------------------------------------------------------




 Dimension of arrays:
   k-points           NKPTS =     50   k-points in BZ     NKDIM =     50   number of bands    NBANDS=     36
   number of dos      NEDOS =    301   number of ions     NIONS =      6
   non local maximal  LDIM  =      6   non local SUM 2l+1 LMDIM =     18
   total plane-waves  NPLWV =  24576
   max r-space proj   IRMAX =      1   max aug-charges    IRDMAX= 122515
   dimension x,y,z NGX =    32 NGY =   32 NGZ =   24
   dimension x,y,z NGXF=    64 NGYF=   64 NGZF=   48
   support grid    NGXF=   128 NGYF=  128 NGZF=   96
   ions per type =               2   4
   NGX,Y,Z   is equivalent  to a cutoff of  11.76, 11.76, 12.68 a.u.
   NGXF,Y,Z  is equivalent  to a cutoff of  23.53, 23.53, 25.36 a.u.

 SYSTEM =  pddmc                                   
 POSCAR =  Pd O                                    

 Startparameter for this run:
   NWRITE =      2    write-flag & timer
   PREC   = accura    normal or accurate (medium, high low for compatibility)
   ISTART =      0    job   : 0-new  1-cont  2-samecut
   ICHARG =      2    charge: 1-file 2-atom 10-const
   ISPIN  =      2    spin polarized calculation?
   LNONCOLLINEAR =      F non collinear calculations
   LSORBIT =      F    spin-orbit coupling
   INIWAV =      1    electr: 0-lowe 1-rand  2-diag
   LASPH  =      T    aspherical Exc in radial PAW
 Electronic Relaxation 1
   ENCUT  =  450.0 eV  33.07 Ry    5.75 a.u.   7.82  7.82  5.44*2*pi/ulx,y,z
   ENINI  =  450.0     initial cutoff
   ENAUG  =  605.4 eV  augmentation charge cutoff
   NELM   =    200;   NELMIN=  5; NELMDL= -5     # of ELM steps 
   EDIFF  = 0.1E-05   stopping-criterion for ELM
   LREAL  =      F    real-space projection
   NLSPLINE    = F    spline interpolate recip. space projectors
   LCOMPAT=      F    compatible to vasp.4.4
   GGA_COMPAT  = T    GGA compatible to vasp.4.4-vasp.4.6
   LMAXPAW     = -100 max onsite density
   LMAXMIX     =    2 max onsite mixed and CHGCAR
   VOSKOWN=      0    Vosko Wilk Nusair interpolation
   ROPT   =    0.00000   0.00000
 Ionic relaxation
   EDIFFG = -.1E-01   stopping-criterion for IOM
   NSW    =      0    number of steps for IOM
   NBLOCK =      1;   KBLOCK =      1    inner block; outer block 
   IBRION =     -1    ionic relax: 0-MD 1-quasi-New 2-CG
   NFREE  =      0    steps in history (QN), initial steepest desc. (CG)
   ISIF   =      0    stress and relaxation
   IWAVPR =     10    prediction:  0-non 1-charg 2-wave 3-comb
   ISYM   =      2    0-nonsym 1-usesym 2-fastsym
   LCORR  =      T    Harris-Foulkes like correction to forces

   POTIM  = 0.5000    time-step for ionic-motion
   TEIN   =    0.0    initial temperature
   TEBEG  =    0.0;   TEEND  =   0.0 temperature during run
   SMASS  =  -3.00    Nose mass-parameter (am)
   estimated Nose-frequenzy (Omega)   =  0.10E-29 period in steps = 0.13E+47 mass=  -0.467E-27a.u.
   SCALEE = 1.0000    scale energy and forces
   NPACO  =    256;   APACO  = 10.0  distance and # of slots for P.C.
   PSTRESS=    0.0 pullay stress

  Mass of Ions in am
   POMASS = 106.42 16.00
  Ionic Valenz
   ZVAL   =  16.00  6.00
  Atomic Wigner-Seitz radii
   RWIGS  =  -1.00 -1.00
  virtual crystal weights 
   VCA    =   1.00  1.00
   NELECT =      56.0000    total number of electrons
   NUPDOWN=      -1.0000    fix difference up-down

 DOS related values:
   EMIN   =  10.00;   EMAX   =-10.00  energy-range for DOS
   EFERMI =   0.00;   METHOD = LEGACY      
   ISMEAR =     0;   SIGMA  =   0.05  broadening in eV -4-tet -1-fermi 0-gaus

 Electronic relaxation 2 (details)
   IALGO  =     38    algorithm
   LDIAG  =      T    sub-space diagonalisation (order eigenvalues)
   LSUBROT=      F    optimize rotation matrix (better conditioning)
   TURBO    =      0    0=normal 1=particle mesh
   IRESTART =      0    0=no restart 2=restart with 2 vectors
   NREBOOT  =      0    no. of reboots
   NMIN     =      0    reboot dimension
   EREF     =   0.00    reference energy to select bands
   IMIX   =      4    mixing-type and parameters
     AMIX     =   0.40;   BMIX     =  1.00
     AMIX_MAG =   1.60;   BMIX_MAG =  1.00
     AMIN     =   0.10
     WC   =   100.;   INIMIX=   1;  MIXPRE=   1;  MAXMIX= -45

 Intra band minimization:
   WEIMIN = 0.0000     energy-eigenvalue tresh-hold
   EBREAK =  0.69E-08  absolut break condition
   DEPER  =   0.30     relativ break condition  

   TIME   =   0.40     timestep for ELM

  volume/ion in A,a.u.               =      10.72        72.37
  Fermi-wavevector in a.u.,A,eV,Ry     =   1.563040  2.953718 33.240331  2.443095
  Thomas-Fermi vector in A             =   2.665870
 
 Write flags
   LWAVE        =      F    write WAVECAR
   LDOWNSAMPLE  =      F    k-point downsampling of WAVECAR
   LCHARG       =      F    write CHGCAR
   LVTOT        =      F    write LOCPOT, total local potential
   LVHAR        =      F    write LOCPOT, Hartree potential only
   WRT_POTENTIAL= false  ! write potential to hdf5 file
   LELF         =      F    write electronic localiz. function (ELF)
   LORBIT       =     11    0 simple, 1 ext, 2 COOP (PROOUT), +10 PAW based schemes


 Dipole corrections
   LMONO      =      F    monopole corrections only (constant potential shift)
   LDIPOL     =      F    correct potential (dipole corrections)
   IDIPOL     =      0    1-x, 2-y, 3-z, 4-all directions 
   EPSILON    =  1.0000000 bulk dielectric constant
   LVACPOTAV  =      F  vacuum potentials using an averaging scheme for the charge density
   VACPOTFLAT =  0.1000000 required flatness to determine vacuum potential
 Exchange correlation treatment:
   GGA     = PE    functional components
   XC_C    = 1    coefficients multiplying the functional components
   LIBXC   =     F    Libxc                    
   VOSKOWN =     0    Vosko Wilk Nusair interpolation
   LHFCALC =     F    Hartree Fock is set to
   LHFONE  =     F    Hartree Fock one center treatment
   AEXX    =    0.0000 exact exchange contribution

 Parameters of functionals:
   PE:
     No parameter
 
 Van der Waals corrections
   IVDW    =    12    specifies the selected vdW correction

 Linear response parameters
   LEPSILON=     F    determine dielectric tensor
   LRPA    =     F    only Hartree local field effects (RPA)
   LNABLA  =     F    use nabla operator in PAW spheres
   LVEL    =     F    velocity operator in full k-point grid
   CSHIFT  =0.1000    complex shift for real part using Kramers Kronig
   OMEGAMAX=  -1.0    maximum frequency
   DEG_THRESHOLD= 0.2000000E-02 threshold for treating states as degnerate
   RTIME   =   -0.100 relaxation time in fs
  (WPLASMAI=    0.000 imaginary part of plasma frequency in eV, 0.658/RTIME)
   DFIELD  = 0.0000000 0.0000000 0.0000000 field for delta impulse in time
 
  Optional k-point grid parameters
   LKPOINTS_OPT  =     F    use optional k-point grid
   KPOINTS_OPT_MODE=     1    mode for optional k-point grid
 
 Orbital magnetization related:
   ORBITALMAG=     F  switch on orbital magnetization
   LCHIMAG   =     F  perturbation theory with respect to B field
   DQ        =  0.001000  dq finite difference perturbation B field
   LLRAUG    =     F  two centre corrections for induced B field
   LBONE     =     F  B-component reconstruction in AE one-centre
   LVGVCALC  =     T  calculate vGv susceptibility
   LVGVAPPL  =     F  apply vGv susceptibility instead of pGv for G=0

 Random number generation:
   RANDOM_GENERATOR = DEFAULT
   PCG_SEED         = not used


--------------------------------------------------------------------------------------------------------


 Static calculation
 charge density and potential will be updated during run
 spin polarized calculation
 Variant of blocked Davidson
 Davidson routine will perform the subspace rotation
 perform sub-space diagonalisation
    after iterative eigenvector-optimisation
 modified Broyden-mixing scheme, WC =      100.0
 initial mixing is a Kerker type mixing with AMIX =  0.4000 and BMIX =      1.0000
 Hartree-type preconditioning will be used
 using additional bands             8
 reciprocal scheme for non local part
 use partial core corrections
 calculate Harris-corrections to forces 
   (improved forces if not selfconsistent)
 use gradient corrections 
 use of overlap-Matrix (Vanderbilt PP)
 Gauss-broadening in eV      SIGMA  =   0.05


--------------------------------------------------------------------------------------------------------


  energy-cutoff  :      450.00
  volume of cell :       64.34
      direct lattice vectors                 reciprocal lattice vectors
     4.522230460  0.000000000  0.000000000     0.221129818 -0.000000000  0.000000000
     0.000000000  4.522230460  0.000000000     0.000000000  0.221129818  0.000000000
     0.000000000  0.000000000  3.146273630    -0.000000000 -0.000000000  0.317836310

  length of vectors
     4.522230460  4.522230460  3.146273630     0.221129818  0.221129818  0.317836310


 
 k-points in units of 2pi/SCALE and weight: Automatic mesh                          
   0.00000000  0.00000000  0.00000000       0.003
   0.03685497  0.00000000  0.00000000       0.014
   0.07370994  0.00000000  0.00000000       0.014
   0.11056491  0.00000000  0.00000000       0.007
   0.03685497  0.03685497  0.00000000       0.014
   0.07370994  0.03685497  0.00000000       0.028
   0.11056491  0.03685497  0.00000000       0.014
   0.07370994  0.07370994  0.00000000       0.014
   0.11056491  0.07370994  0.00000000       0.014
   0.11056491  0.11056491  0.00000000       0.003
   0.00000000  0.00000000  0.03972954       0.007
   0.03685497  0.00000000  0.03972954       0.028
   0.07370994  0.00000000  0.03972954       0.028
   0.11056491  0.00000000  0.03972954       0.014
   0.03685497  0.03685497  0.03972954       0.028
   0.07370994  0.03685497  0.03972954       0.056
   0.11056491  0.03685497  0.03972954       0.028
   0.07370994  0.07370994  0.03972954       0.028
   0.11056491  0.07370994  0.03972954       0.028
   0.11056491  0.11056491  0.03972954       0.007
   0.00000000  0.00000000  0.07945908       0.007
   0.03685497  0.00000000  0.07945908       0.028
   0.07370994  0.00000000  0.07945908       0.028
   0.11056491  0.00000000  0.07945908       0.014
   0.03685497  0.03685497  0.07945908       0.028
   0.07370994  0.03685497  0.07945908       0.056
   0.11056491  0.03685497  0.07945908       0.028
   0.07370994  0.07370994  0.07945908       0.028
   0.11056491  0.07370994  0.07945908       0.028
   0.11056491  0.11056491  0.07945908       0.007
   0.00000000  0.00000000  0.11918862       0.007
   0.03685497  0.00000000  0.11918862       0.028
   0.07370994  0.00000000  0.11918862       0.028
   0.11056491  0.00000000  0.11918862       0.014
   0.03685497  0.03685497  0.11918862       0.028
   0.07370994  0.03685497  0.11918862       0.056
   0.11056491  0.03685497  0.11918862       0.028
   0.07370994  0.07370994  0.11918862       0.028
   0.11056491  0.07370994  0.11918862       0.028
   0.11056491  0.11056491  0.11918862       0.007
   0.00000000  0.00000000  0.15891815       0.003
   0.03685497  0.00000000  0.15891815       0.014
   0.07370994  0.00000000  0.15891815       0.014
   0.11056491  0.00000000  0.15891815       0.007
   0.03685497  0.03685497  0.15891815       0.014
   0.07370994  0.03685497  0.15891815       0.028
   0.11056491  0.03685497  0.15891815       0.014
   0.07370994  0.07370994  0.15891815       0.014
   0.11056491  0.07370994  0.15891815       0.014
   0.11056491  0.11056491  0.15891815       0.003
 
 k-points in reciprocal lattice and weights: Automatic mesh                          
   0.00000000  0.00000000  0.00000000       0.003
   0.16666667  0.00000000  0.00000000       0.014
   0.33333333  0.00000000  0.00000000       0.014
   0.50000000  0.00000000  0.00000000       0.007
   0.16666667  0.16666667  0.00000000       0.014
   0.33333333  0.16666667  0.00000000       0.028
   0.50000000  0.16666667  0.00000000       0.014
   0.33333333  0.33333333  0.00000000       0.014
   0.50000000  0.33333333  0.00000000       0.014
   0.50000000  0.50000000  0.00000000       0.003
   0.00000000  0.00000000  0.12500000       0.007
   0.16666667  0.00000000  0.12500000       0.028
   0.33333333  0.00000000  0.12500000       0.028
   0.50000000  0.00000000  0.12500000       0.014
   0.16666667  0.16666667  0.12500000       0.028
   0.33333333  0.16666667  0.12500000       0.056
   0.50000000  0.16666667  0.12500000       0.028
   0.33333333  0.33333333  0.12500000       0.028
   0.50000000  0.33333333  0.12500000       0.028
   0.50000000  0.50000000  0.12500000       0.007
   0.00000000  0.00000000  0.25000000       0.007
   0.16666667  0.00000000  0.25000000       0.028
   0.33333333  0.00000000  0.25000000       0.028
   0.50000000  0.00000000  0.25000000       0.014
   0.16666667  0.16666667  0.25000000       0.028
   0.33333333  0.16666667  0.25000000       0.056
   0.50000000  0.16666667  0.25000000       0.028
   0.33333333  0.33333333  0.25000000       0.028
   0.50000000  0.33333333  0.25000000       0.028
   0.50000000  0.50000000  0.25000000       0.007
   0.00000000  0.00000000  0.37500000       0.007
   0.16666667  0.00000000  0.37500000       0.028
   0.33333333  0.00000000  0.37500000       0.028
   0.50000000  0.00000000  0.37500000       0.014
   0.16666667  0.16666667  0.37500000       0.028
   0.33333333  0.16666667  0.37500000       0.056
   0.50000000  0.16666667  0.37500000       0.028
   0.33333333  0.33333333  0.37500000       0.028
   0.50000000  0.33333333  0.37500000       0.028
   0.50000000  0.50000000  0.37500000       0.007
   0.00000000  0.00000000  0.50000000       0.003
   0.16666667  0.00000000  0.50000000       0.014
   0.33333333  0.00000000  0.50000000       0.014
   0.50000000  0.00000000  0.50000000       0.007
   0.16666667  0.16666667  0.50000000       0.014
   0.33333333  0.16666667  0.50000000       0.028
   0.50000000  0.16666667  0.50000000       0.014
   0.33333333  0.33333333  0.50000000       0.014
   0.50000000  0.33333333  0.50000000       0.014
   0.50000000  0.50000000  0.50000000       0.003
 
 position of ions in fractional coordinates (direct lattice) 
   0.50000000  0.50000000  0.50000000
   0.00000000  0.00000000  0.00000000
   0.80815192  0.19184808  0.50000000
   0.19184808  0.80815192  0.50000000
   0.30815192  0.30815192  0.00000000
   0.69184808  0.69184808  0.00000000
 
 position of ions in cartesian coordinates  (Angst):
   2.26111523  2.26111523  1.57313682
   0.00000000  0.00000000  0.00000000
   3.65464923  0.86758123  1.57313682
   0.86758123  3.65464923  1.57313682
   1.39353400  1.39353400  0.00000000
   3.12869646  3.12869646  0.00000000
 


--------------------------------------------------------------------------------------------------------


 k-point     1 :   0.0000 0.0000 0.0000  plane waves:    1411
 k-point     2 :   0.1667 0.0000 0.0000  plane waves:    1409
 k-point     3 :   0.3333 0.0000 0.0000  plane waves:    1402
 k-point     4 :   0.5000 0.0000 0.0000  plane waves:    1400
 k-point     5 :   0.1667 0.1667 0.0000  plane waves:    1411
 k-point     6 :   0.3333 0.1667 0.0000  plane waves:    1393
 k-point     7 :   0.5000 0.1667 0.0000  plane waves:    1390
 k-point     8 :   0.3333 0.3333 0.0000  plane waves:    1391
 k-point     9 :   0.5000 0.3333 0.0000  plane waves:    1412
 k-point    10 :   0.5000 0.5000 0.0000  plane waves:    1416
 k-point    11 :   0.0000 0.0000 0.1250  plane waves:    1419
 k-point    12 :   0.1667 0.0000 0.1250  plane waves:    1404
 k-point    13 :   0.3333 0.0000 0.1250  plane waves:    1399
 k-point    14 :   0.5000 0.0000 0.1250  plane waves:    1402
 k-point    15 :   0.1667 0.1667 0.1250  plane waves:    1398
 k-point    16 :   0.3333 0.1667 0.1250  plane waves:    1400
 k-point    17 :   0.5000 0.1667 0.1250  plane waves:    1400
 k-point    18 :   0.3333 0.3333 0.1250  plane waves:    1400
 k-point    19 :   0.5000 0.3333 0.1250  plane waves:    1392
 k-point    20 :   0.5000 0.5000 0.1250  plane waves:    1384
 k-point    21 :   0.0000 0.0000 0.2500  plane waves:    1387
 k-point    22 :   0.1667 0.0000 0.2500  plane waves:    1390
 k-point    23 :   0.3333 0.0000 0.2500  plane waves:    1408
 k-point    24 :   0.5000 0.0000 0.2500  plane waves:    1392
 k-point    25 :   0.1667 0.1667 0.2500  plane waves:    1385
 k-point    26 :   0.3333 0.1667 0.2500  plane waves:    1397
 k-point    27 :   0.5000 0.1667 0.2500  plane waves:    1408
 k-point    28 :   0.3333 0.3333 0.2500  plane waves:    1396
 k-point    29 :   0.5000 0.3333 0.2500  plane waves:    1402
 k-point    30 :   0.5000 0.5000 0.2500  plane waves:    1400
 k-point    31 :   0.0000 0.0000 0.3750  plane waves:    1371
 k-point    32 :   0.1667 0.0000 0.3750  plane waves:    1384
 k-point    33 :   0.3333 0.0000 0.3750  plane waves:    1395
 k-point    34 :   0.5000 0.0000 0.3750  plane waves:    1406
 k-point    35 :   0.1667 0.1667 0.3750  plane waves:    1376
 k-point    36 :   0.3333 0.1667 0.3750  plane waves:    1394
 k-point    37 :   0.5000 0.1667 0.3750  plane waves:    1398
 k-point    38 :   0.3333 0.3333 0.3750  plane waves:    1396
 k-point    39 :   0.5000 0.3333 0.3750  plane waves:    1396
 k-point    40 :   0.5000 0.5000 0.3750  plane waves:    1392
 k-point    41 :   0.0000 0.0000 0.5000  plane waves:    1354
 k-point    42 :   0.1667 0.0000 0.5000  plane waves:    1382
 k-point    43 :   0.3333 0.0000 0.5000  plane waves:    1380
 k-point    44 :   0.5000 0.0000 0.5000  plane waves:    1388
 k-point    45 :   0.1667 0.1667 0.5000  plane waves:    1382
 k-point    46 :   0.3333 0.1667 0.5000  plane waves:    1386
 k-point    47 :   0.5000 0.1667 0.5000  plane waves:    1384
 k-point    48 :   0.3333 0.3333 0.5000  plane waves:    1402
 k-point    49 :   0.5000 0.3333 0.5000  plane waves:    1388
 k-point    50 :   0.5000 0.5000 0.5000  plane waves:    1384

 maximum and minimum number of plane-waves per node :      1419     1354

 maximum number of plane-waves:      1419
 maximum index in each direction: 
   IXMAX=    7   IYMAX=    7   IZMAX=    5
   IXMIN=   -8   IYMIN=   -8   IZMIN=   -5


 serial   3D FFT for wavefunctions
 parallel 3D FFT for charge:
    minimum data exchange during FFTs selected (reduces bandwidth)


 total amount of memory used by VASP MPI-rank0    85679. kBytes
=======================================================================

   base      :      30000. kBytes
   nonl-proj :      20584. kBytes
   fftplans  :       7420. kBytes
   grid      :       6062. kBytes
   one-center:        186. kBytes
   wavefun   :      21427. kBytes
 
     INWAV:  cpu time      0.0000: real time      0.0001
 Broyden mixing: mesh for mixing (old mesh)
   NGX = 15   NGY = 15   NGZ = 11
  (NGX  = 64   NGY  = 64   NGZ  = 48)
  gives a total of   2475 points

 initial charge density was supplied:
 charge density of overlapping atoms calculated
 number of electron      56.0000000 magnetization       6.0000000
 keeping initial charge density in first step


--------------------------------------------------------------------------------------------------------


 Maximum index for augmentation-charges         29661 (set IRDMAX)


--------------------------------------------------------------------------------------------------------


 First call to EWALD:  gamma=   0.442
 Maximum number of real-space cells 2x 2x 3
 Maximum number of reciprocal cells 3x 3x 2

    FEWALD:  cpu time      0.0004: real time      0.0004


--------------------------------------- Ionic step        1  -------------------------------------------




--------------------------------------- Iteration      1(   1)  ---------------------------------------


    POTLOK:  cpu time      0.0378: real time      0.0378
    SETDIJ:  cpu time      0.5962: real time      0.6991
     EDDAV:  cpu time      4.1502: real time      4.2858
       DOS:  cpu time      0.0006: real time      0.0006
    --------------------------------------------
      LOOP:  cpu time      4.7847: real time      5.0233

 eigenvalue-minimisations  :  7608
 total energy-change (2. order) : 0.5390613E+03  (-0.3180685E+04)
 number of electron      56.0000000 magnetization       6.0000000
 augmentation part       56.0000000 magnetization       6.0000000

 Free energy of the ion-electron system (eV)
  ---------------------------------------------------
  alpha Z        PSCENC =       302.45619847
  Ewald energy   TEWEN  =     -5214.09126118
  -Hartree energ DENC   =     -1860.07067583
  -exchange      EXHF   =         0.00000000
  -V(xc)+E(xc)   XCENC  =       277.13147579
  PAW double counting   =      5901.46612542    -5850.99266113
  entropy T*S    EENTRO =        -0.00139815
  eigenvalues    EBANDS =        10.71435534
  atomic energy  EATOM  =      6972.44915634
  Solvation  Ediel_sol  =         0.00000000
  ---------------------------------------------------
  free energy    TOTEN  =       539.06131506 eV

  energy without entropy =      539.06271321  energy(sigma->0) =      539.06201413


--------------------------------------------------------------------------------------------------------




--------------------------------------- Iteration      1(   2)  ---------------------------------------


     EDDAV:  cpu time      2.5197: real time      2.5199
       DOS:  cpu time      0.0006: real time      0.0006
    --------------------------------------------
      LOOP:  cpu time      2.5202: real time      2.5205

 eigenvalue-minimisations  :  8396
 total energy-change (2. order) :-0.5501672E+03  (-0.5300455E+03)
 number of electron      56.0000000 magnetization       6.0000000
 augmentation part       56.0000000 magnetization       6.0000000

 Free energy of the ion-electron system (eV)
  ---------------------------------------------------
  alpha Z        PSCENC =       302.45619847
  Ewald energy   TEWEN  =     -5214.09126118
  -Hartree energ DENC   =     -1860.07067583
  -exchange      EXHF   =         0.00000000
  -V(xc)+E(xc)   XCENC  =       277.13147579
  PAW double counting   =      5901.46612542    -5850.99266113
  entropy T*S    EENTRO =        -0.00273036
  eigenvalues    EBANDS =      -539.45147740
  atomic energy  EATOM  =      6972.44915634
  Solvation  Ediel_sol  =         0.00000000
  ---------------------------------------------------
  free energy    TOTEN  =       -11.10584989 eV

  energy without entropy =      -11.10311953  energy(sigma->0) =      -11.10448471


--------------------------------------------------------------------------------------------------------




--------------------------------------- Iteration      1(   3)  ---------------------------------------


     EDDAV:  cpu time      2.3897: real time      2.3900
       DOS:  cpu time      0.0005: real time      0.0005
    --------------------------------------------
      LOOP:  cpu time      2.3903: real time      2.3905

 eigenvalue-minimisations  :  7880
 total energy-change (2. order) :-0.2951494E+02  (-0.2921165E+02)
 number of electron      56.0000000 magnetization       6.0000000
 augmentation part       56.0000000 magnetization       6.0000000

 Free energy of the ion-electron system (eV)
  ---------------------------------------------------
  alpha Z        PSCENC =       302.45619847
  Ewald energy   TEWEN  =     -5214.09126118
  -Hartree energ DENC   =     -1860.07067583
  -exchange      EXHF   =         0.00000000
  -V(xc)+E(xc)   XCENC  =       277.13147579
  PAW double counting   =      5901.46612542    -5850.99266113
  entropy T*S    EENTRO =        -0.00413804
  eigenvalues    EBANDS =      -568.96501226
  atomic energy  EATOM  =      6972.44915634
  Solvation  Ediel_sol  =         0.00000000
  ---------------------------------------------------
  free energy    TOTEN  =       -40.62079243 eV

  energy without entropy =      -40.61665439  energy(sigma->0) =      -40.61872341


--------------------------------------------------------------------------------------------------------




--------------------------------------- Iteration      1(   4)  ---------------------------------------


     EDDAV:  cpu time      2.4131: real time      2.4134
       DOS:  cpu time      0.0005: real time      0.0005
    --------------------------------------------
      LOOP:  cpu time      2.4136: real time      2.4139

 eigenvalue-minimisations  :  8012
 total energy-change (2. order) :-0.3541118E+00  (-0.3536723E+00)
 number of electron      56.0000000 magnetization       6.0000000
 augmentation part       56.0000000 magnetization       6.0000000

 Free energy of the ion-electron system (eV)
  ---------------------------------------------------
  alpha Z        PSCENC =       302.45619847
  Ewald energy   TEWEN  =     -5214.09126118
  -Hartree energ DENC   =     -1860.07067583
  -exchange      EXHF   =         0.00000000
  -V(xc)+E(xc)   XCENC  =       277.13147579
  PAW double counting   =      5901.46612542    -5850.99266113
  entropy T*S    EENTRO =        -0.00411744
  eigenvalues    EBANDS =      -569.31914462
  atomic energy  EATOM  =      6972.44915634
  Solvation  Ediel_sol  =         0.00000000
  ---------------------------------------------------
  free energy    TOTEN  =       -40.97490420 eV

  energy without entropy =      -40.97078675  energy(sigma->0) =      -40.97284547


--------------------------------------------------------------------------------------------------------




--------------------------------------- Iteration      1(   5)  ---------------------------------------


     EDDAV:  cpu time      2.3497: real time      2.3500
       DOS:  cpu time      0.0005: real time      0.0005
    CHARGE:  cpu time      0.2004: real time      0.2004
    MIXING:  cpu time      0.0012: real time      0.0012
    --------------------------------------------
      LOOP:  cpu time      2.5518: real time      2.5521

 eigenvalue-minimisations  :  7724
 total energy-change (2. order) :-0.4029728E-02  (-0.4029432E-02)
 number of electron      55.9999999 magnetization       0.0889542
 augmentation part       16.7720593 magnetization      -0.0628206

 Broyden mixing:
  rms(total) = 0.28071E+01    rms(broyden)= 0.28053E+01
  rms(prec ) = 0.53212E+01
  weight for this iteration     100.00

 Free energy of the ion-electron system (eV)
  ---------------------------------------------------
  alpha Z        PSCENC =       302.45619847
  Ewald energy   TEWEN  =     -5214.09126118
  -Hartree energ DENC   =     -1860.07067583
  -exchange      EXHF   =         0.00000000
  -V(xc)+E(xc)   XCENC  =       277.13147579
  PAW double counting   =      5901.46612542    -5850.99266113
  entropy T*S    EENTRO =        -0.00411803
  eigenvalues    EBANDS =      -569.32317376
  atomic energy  EATOM  =      6972.44915634
  Solvation  Ediel_sol  =         0.00000000
  ---------------------------------------------------
  free energy    TOTEN  =       -40.97893392 eV

  energy without entropy =      -40.97481589  energy(sigma->0) =      -40.97687491


--------------------------------------------------------------------------------------------------------




--------------------------------------- Iteration      1(   6)  ---------------------------------------


    POTLOK:  cpu time      0.0356: real time      0.0356
    SETDIJ:  cpu time      0.5726: real time      0.5726
     EDDAV:  cpu time      2.3392: real time      2.3394
       DOS:  cpu time      0.0005: real time      0.0005
    CHARGE:  cpu time      0.2029: real time      0.2030
    MIXING:  cpu time      0.0015: real time      0.0015
    --------------------------------------------
      LOOP:  cpu time      3.1521: real time      3.1526

 eigenvalue-minimisations  :  7708
 total energy-change (2. order) : 0.5380942E+01  (-0.5121885E+01)
 number of electron      55.9999999 magnetization      -0.2990304
 augmentation part       18.3618998 magnetization       0.0191285

 Broyden mixing:
  rms(total) = 0.15561E+01    rms(broyden)= 0.15548E+01
  rms(prec ) = 0.33535E+01
  weight for this iteration     100.00

 eigenvalues of (default mixing * dielectric matrix)
  average eigenvalue GAMMA=   0.7325
  0.7325

 Free energy of the ion-electron system (eV)
  ---------------------------------------------------
  alpha Z        PSCENC =       302.45619847
  Ewald energy   TEWEN  =     -5214.09126118
  -Hartree energ DENC   =     -1784.30018849
  -exchange      EXHF   =         0.00000000
  -V(xc)+E(xc)   XCENC  =       276.14483162
  PAW double counting   =      6067.84560671    -6031.64779033
  entropy T*S    EENTRO =        -0.00885673
  eigenvalues    EBANDS =      -624.44568802
  atomic energy  EATOM  =      6972.44915634
  Solvation  Ediel_sol  =         0.00000000
  ---------------------------------------------------
  free energy    TOTEN  =       -35.59799161 eV

  energy without entropy =      -35.58913488  energy(sigma->0) =      -35.59356325


--------------------------------------------------------------------------------------------------------




--------------------------------------- Iteration      1(   7)  ---------------------------------------


    POTLOK:  cpu time      0.0350: real time      0.0351
    SETDIJ:  cpu time      0.5747: real time      0.5747
     EDDAV:  cpu time      2.3001: real time      2.3005
       DOS:  cpu time      0.0006: real time      0.0006
    CHARGE:  cpu time      0.1983: real time      0.1983
    MIXING:  cpu time      0.0013: real time      0.0013
    --------------------------------------------
      LOOP:  cpu time      3.1100: real time      3.1105

 eigenvalue-minimisations  :  7536
 total energy-change (2. order) : 0.3397634E+01  (-0.1560719E+01)
 number of electron      55.9999999 magnetization      -0.3510703
 augmentation part       17.4066381 magnetization      -0.1855622

 Broyden mixing:
  rms(total) = 0.53904E+00    rms(broyden)= 0.53834E+00
  rms(prec ) = 0.84537E+00
  weight for this iteration     100.00

 eigenvalues of (default mixing * dielectric matrix)
  average eigenvalue GAMMA=   0.7248
  0.9178  0.5317

 Free energy of the ion-electron system (eV)
  ---------------------------------------------------
  alpha Z        PSCENC =       302.45619847
  Ewald energy   TEWEN  =     -5214.09126118
  -Hartree energ DENC   =     -1819.69026091
  -exchange      EXHF   =         0.00000000
  -V(xc)+E(xc)   XCENC  =       276.57313351
  PAW double counting   =      6251.18577014    -6212.63981984
  entropy T*S    EENTRO =        -0.00530904
  eigenvalues    EBANDS =      -588.43796508
  atomic energy  EATOM  =      6972.44915634
  Solvation  Ediel_sol  =         0.00000000
  ---------------------------------------------------
  free energy    TOTEN  =       -32.20035761 eV

  energy without entropy =      -32.19504857  energy(sigma->0) =      -32.19770309


--------------------------------------------------------------------------------------------------------




--------------------------------------- Iteration      1(   8)  ---------------------------------------


    POTLOK:  cpu time      0.0352: real time      0.0353
    SETDIJ:  cpu time      0.5731: real time      0.5734
     EDDAV:  cpu time      2.3236: real time      2.3245
       DOS:  cpu time      0.0005: real time      0.0005
    CHARGE:  cpu time      0.2011: real time      0.2011
    MIXING:  cpu time      0.0011: real time      0.0011
    --------------------------------------------
      LOOP:  cpu time      3.1347: real time      3.1358

 eigenvalue-minimisations  :  7616
 total energy-change (2. order) : 0.5742258E-01  (-0.1266703E+00)
 number of electron      55.9999999 magnetization      -0.3033124
 augmentation part       17.5325980 magnetization      -0.1275456

 Broyden mixing:
  rms(total) = 0.30004E+00    rms(broyden)= 0.30002E+00
  rms(prec ) = 0.41583E+00
  weight for this iteration     100.00

 eigenvalues of (default mixing * dielectric matrix)
  average eigenvalue GAMMA=   1.0430
  0.5594  0.8664  1.7032

 Free energy of the ion-electron system (eV)
  ---------------------------------------------------
  alpha Z        PSCENC =       302.45619847
  Ewald energy   TEWEN  =     -5214.09126118
  -Hartree energ DENC   =     -1808.42093243
  -exchange      EXHF   =         0.00000000
  -V(xc)+E(xc)   XCENC  =       276.18563777
  PAW double counting   =      6373.10701462    -6336.83601934
  entropy T*S    EENTRO =        -0.00510620
  eigenvalues    EBANDS =      -596.98762307
  atomic energy  EATOM  =      6972.44915634
  Solvation  Ediel_sol  =         0.00000000
  ---------------------------------------------------
  free energy    TOTEN  =       -32.14293503 eV

  energy without entropy =      -32.13782883  energy(sigma->0) =      -32.14038193


--------------------------------------------------------------------------------------------------------




--------------------------------------- Iteration      1(   9)  ---------------------------------------


    POTLOK:  cpu time      0.0351: real time      0.0352
    SETDIJ:  cpu time      0.5743: real time      0.5744
     EDDAV:  cpu time      2.3467: real time      2.3476
       DOS:  cpu time      0.0006: real time      0.0006
    CHARGE:  cpu time      0.1978: real time      0.1978
    MIXING:  cpu time      0.0011: real time      0.0011
    --------------------------------------------
      LOOP:  cpu time      3.1556: real time      3.1567

 eigenvalue-minimisations  :  7824
 total energy-change (2. order) : 0.1971221E-01  (-0.1295763E-01)
 number of electron      55.9999999 magnetization      -0.2895805
 augmentation part       17.6084347 magnetization      -0.1111822

 Broyden mixing:
  rms(total) = 0.84963E-01    rms(broyden)= 0.84912E-01
  rms(prec ) = 0.15259E+00
  weight for this iteration     100.00

 eigenvalues of (default mixing * dielectric matrix)
  average eigenvalue GAMMA=   1.1360
  2.3665  0.8653  0.5807  0.7316

 Free energy of the ion-electron system (eV)
  ---------------------------------------------------
  alpha Z        PSCENC =       302.45619847
  Ewald energy   TEWEN  =     -5214.09126118
  -Hartree energ DENC   =     -1802.09685213
  -exchange      EXHF   =         0.00000000
  -V(xc)+E(xc)   XCENC  =       276.09468206
  PAW double counting   =      6564.65164857    -6530.66794590
  entropy T*S    EENTRO =        -0.00559018
  eigenvalues    EBANDS =      -600.91325886
  atomic energy  EATOM  =      6972.44915634
  Solvation  Ediel_sol  =         0.00000000
  ---------------------------------------------------
  free energy    TOTEN  =       -32.12322282 eV

  energy without entropy =      -32.11763264  energy(sigma->0) =      -32.12042773


--------------------------------------------------------------------------------------------------------




--------------------------------------- Iteration      1(  10)  ---------------------------------------


    POTLOK:  cpu time      0.0347: real time      0.0348
    SETDIJ:  cpu time      0.5715: real time      0.5716
     EDDAV:  cpu time      2.3147: real time      2.3165
       DOS:  cpu time      0.0005: real time      0.0005
    CHARGE:  cpu time      0.2024: real time      0.2024
    MIXING:  cpu time      0.0012: real time      0.0012
    --------------------------------------------
      LOOP:  cpu time      3.1252: real time      3.1271

 eigenvalue-minimisations  :  7620
 total energy-change (2. order) : 0.2619628E-02  (-0.1765951E-02)
 number of electron      55.9999999 magnetization      -0.2983955
 augmentation part       17.5806706 magnetization      -0.1206312

 Broyden mixing:
  rms(total) = 0.27509E-01    rms(broyden)= 0.27502E-01
  rms(prec ) = 0.43296E-01
  weight for this iteration     100.00

 eigenvalues of (default mixing * dielectric matrix)
  average eigenvalue GAMMA=   1.1200
  2.5338  0.9346  0.9346  0.6210  0.5761

 Free energy of the ion-electron system (eV)
  ---------------------------------------------------
  alpha Z        PSCENC =       302.45619847
  Ewald energy   TEWEN  =     -5214.09126118
  -Hartree energ DENC   =     -1802.87644225
  -exchange      EXHF   =         0.00000000
  -V(xc)+E(xc)   XCENC  =       276.11202464
  PAW double counting   =      6613.22142678    -6579.38698932
  entropy T*S    EENTRO =        -0.00539838
  eigenvalues    EBANDS =      -599.99931828
  atomic energy  EATOM  =      6972.44915634
  Solvation  Ediel_sol  =         0.00000000
  ---------------------------------------------------
  free energy    TOTEN  =       -32.12060319 eV

  energy without entropy =      -32.11520481  energy(sigma->0) =      -32.11790400


--------------------------------------------------------------------------------------------------------




--------------------------------------- Iteration      1(  11)  ---------------------------------------


    POTLOK:  cpu time      0.0344: real time      0.0345
    SETDIJ:  cpu time      0.5698: real time      0.5698
     EDDAV:  cpu time      2.3205: real time      2.3209
       DOS:  cpu time      0.0005: real time      0.0005
    CHARGE:  cpu time      0.2000: real time      0.2000
    MIXING:  cpu time      0.0013: real time      0.0013
    --------------------------------------------
      LOOP:  cpu time      3.1265: real time      3.1270

 eigenvalue-minimisations  :  7668
 total energy-change (2. order) :-0.3956725E-04  (-0.2035231E-03)
 number of electron      55.9999999 magnetization      -0.3154466
 augmentation part       17.5748792 magnetization      -0.1333929

 Broyden mixing:
  rms(total) = 0.11668E-01    rms(broyden)= 0.11661E-01
  rms(prec ) = 0.17811E-01
  weight for this iteration     100.00

 eigenvalues of (default mixing * dielectric matrix)
  average eigenvalue GAMMA=   1.0862
  2.5078  1.0520  1.0520  0.5636  0.6710  0.6710

 Free energy of the ion-electron system (eV)
  ---------------------------------------------------
  alpha Z        PSCENC =       302.45619847
  Ewald energy   TEWEN  =     -5214.09126118
  -Hartree energ DENC   =     -1803.39564221
  -exchange      EXHF   =         0.00000000
  -V(xc)+E(xc)   XCENC  =       276.12467141
  PAW double counting   =      6617.20504598    -6583.26754742
  entropy T*S    EENTRO =        -0.00526898
  eigenvalues    EBANDS =      -599.59599516
  atomic energy  EATOM  =      6972.44915634
  Solvation  Ediel_sol  =         0.00000000
  ---------------------------------------------------
  free energy    TOTEN  =       -32.12064276 eV

  energy without entropy =      -32.11537378  energy(sigma->0) =      -32.11800827


--------------------------------------------------------------------------------------------------------




--------------------------------------- Iteration      1(  12)  ---------------------------------------


    POTLOK:  cpu time      0.0348: real time      0.0349
    SETDIJ:  cpu time      0.5423: real time      0.5755
     EDDAV:  cpu time      2.3837: real time      2.3839
       DOS:  cpu time      0.0006: real time      0.0006
    CHARGE:  cpu time      0.1984: real time      0.1984
    MIXING:  cpu time      0.0013: real time      0.0013
    --------------------------------------------
      LOOP:  cpu time      3.1611: real time      3.1947

 eigenvalue-minimisations  :  7728
 total energy-change (2. order) : 0.3859203E-04  (-0.2072556E-04)
 number of electron      55.9999999 magnetization      -0.3255506
 augmentation part       17.5737346 magnetization      -0.1366488

 Broyden mixing:
  rms(total) = 0.52476E-02    rms(broyden)= 0.52368E-02
  rms(prec ) = 0.73757E-02
  weight for this iteration     100.00

 eigenvalues of (default mixing * dielectric matrix)
  average eigenvalue GAMMA=   1.2083
  2.5042  2.0033  1.1085  0.8474  0.7776  0.5673  0.6497

 Free energy of the ion-electron system (eV)
  ---------------------------------------------------
  alpha Z        PSCENC =       302.45619847
  Ewald energy   TEWEN  =     -5214.09126118
  -Hartree energ DENC   =     -1803.96867275
  -exchange      EXHF   =         0.00000000
  -V(xc)+E(xc)   XCENC  =       276.14710877
  PAW double counting   =      6617.15330539    -6583.06835047
  entropy T*S    EENTRO =        -0.00512630
  eigenvalues    EBANDS =      -599.19296243
  atomic energy  EATOM  =      6972.44915634
  Solvation  Ediel_sol  =         0.00000000
  ---------------------------------------------------
  free energy    TOTEN  =       -32.12060416 eV

  energy without entropy =      -32.11547787  energy(sigma->0) =      -32.11804102


--------------------------------------------------------------------------------------------------------




--------------------------------------- Iteration      1(  13)  ---------------------------------------


    POTLOK:  cpu time      0.0353: real time      0.0354
    SETDIJ:  cpu time      0.5726: real time      0.5727
     EDDAV:  cpu time      2.3319: real time      2.3323
       DOS:  cpu time      0.0005: real time      0.0005
    CHARGE:  cpu time      0.2010: real time      0.2015
    MIXING:  cpu time      0.0014: real time      0.0014
    --------------------------------------------
      LOOP:  cpu time      3.1427: real time      3.1438

 eigenvalue-minimisations  :  7680
 total energy-change (2. order) :-0.1515673E-04  (-0.8036563E-05)
 number of electron      55.9999999 magnetization      -0.3261664
 augmentation part       17.5737060 magnetization      -0.1340084

 Broyden mixing:
  rms(total) = 0.12625E-02    rms(broyden)= 0.12419E-02
  rms(prec ) = 0.15167E-02
  weight for this iteration     100.00

 eigenvalues of (default mixing * dielectric matrix)
  average eigenvalue GAMMA=   1.2175
  2.6777  2.2841  1.0611  0.9607  0.8026  0.7518  0.5660  0.6364

 Free energy of the ion-electron system (eV)
  ---------------------------------------------------
  alpha Z        PSCENC =       302.45619847
  Ewald energy   TEWEN  =     -5214.09126118
  -Hartree energ DENC   =     -1804.22804666
  -exchange      EXHF   =         0.00000000
  -V(xc)+E(xc)   XCENC  =       276.15934395
  PAW double counting   =      6618.72696934    -6584.57989809
  entropy T*S    EENTRO =        -0.00506184
  eigenvalues    EBANDS =      -599.00801963
  atomic energy  EATOM  =      6972.44915634
  Solvation  Ediel_sol  =         0.00000000
  ---------------------------------------------------
  free energy    TOTEN  =       -32.12061932 eV

  energy without entropy =      -32.11555748  energy(sigma->0) =      -32.11808840


--------------------------------------------------------------------------------------------------------




--------------------------------------- Iteration      1(  14)  ---------------------------------------


    POTLOK:  cpu time      0.0350: real time      0.0351
    SETDIJ:  cpu time      0.5716: real time      0.5716
     EDDAV:  cpu time      2.1201: real time      2.1536
       DOS:  cpu time      0.0005: real time      0.0005
    CHARGE:  cpu time      0.2026: real time      0.2028
    MIXING:  cpu time      0.0014: real time      0.0014
    --------------------------------------------
      LOOP:  cpu time      2.9312: real time      2.9651

 eigenvalue-minimisations  :  6612
 total energy-change (2. order) :-0.2371713E-05  (-0.3213442E-06)
 number of electron      55.9999999 magnetization      -0.3267586
 augmentation part       17.5736693 magnetization      -0.1341222

 Broyden mixing:
  rms(total) = 0.48537E-03    rms(broyden)= 0.47950E-03
  rms(prec ) = 0.68931E-03
  weight for this iteration     100.00

 eigenvalues of (default mixing * dielectric matrix)
  average eigenvalue GAMMA=   1.2063
  2.7198  2.3268  1.0825  1.0825  0.9413  0.5667  0.7539  0.7539  0.6296

 Free energy of the ion-electron system (eV)
  ---------------------------------------------------
  alpha Z        PSCENC =       302.45619847
  Ewald energy   TEWEN  =     -5214.09126118
  -Hartree energ DENC   =     -1804.24293341
  -exchange      EXHF   =         0.00000000
  -V(xc)+E(xc)   XCENC  =       276.15979643
  PAW double counting   =      6618.76747786    -6584.61369982
  entropy T*S    EENTRO =        -0.00505475
  eigenvalues    EBANDS =      -599.00030163
  atomic energy  EATOM  =      6972.44915634
  Solvation  Ediel_sol  =         0.00000000
  ---------------------------------------------------
  free energy    TOTEN  =       -32.12062169 eV

  energy without entropy =      -32.11556695  energy(sigma->0) =      -32.11809432


--------------------------------------------------------------------------------------------------------




--------------------------------------- Iteration      1(  15)  ---------------------------------------


    POTLOK:  cpu time      0.0355: real time      0.0356
    SETDIJ:  cpu time      0.5743: real time      0.5743
     EDDAV:  cpu time      1.6910: real time      1.6910
       DOS:  cpu time      0.0006: real time      0.0006
    --------------------------------------------
      LOOP:  cpu time      2.3013: real time      2.3015

 eigenvalue-minimisations  :  4512
 total energy-change (2. order) : 0.2440020E-06  (-0.7444784E-07)
 number of electron      55.9999999 magnetization      -0.3267586
 augmentation part       17.5736693 magnetization      -0.1341222

 Free energy of the ion-electron system (eV)
  ---------------------------------------------------
  alpha Z        PSCENC =       302.45619847
  Ewald energy   TEWEN  =     -5214.09126118
  -Hartree energ DENC   =     -1804.24302894
  -exchange      EXHF   =         0.00000000
  -V(xc)+E(xc)   XCENC  =       276.15967033
  PAW double counting   =      6618.51201887    -6584.35462025
  entropy T*S    EENTRO =        -0.00504955
  eigenvalues    EBANDS =      -599.00370553
  atomic energy  EATOM  =      6972.44915634
  Solvation  Ediel_sol  =         0.00000000
  ---------------------------------------------------
  free energy    TOTEN  =       -32.12062145 eV

  energy without entropy =      -32.11557190  energy(sigma->0) =      -32.11809667


--------------------------------------------------------------------------------------------------------




 average (electrostatic) potential at core
  the test charge radii are     1.0504  0.7215
  (the norm of the test charge is              1.0000)
       1 -80.5434       2 -80.5434       3 -70.0619       4 -70.0619       5 -70.0619
       6 -70.0619
 
 
 
 E-fermi :   5.4862     XC(G=0): -11.8268     alpha+bet :-12.2345

 val. band max:        5.4793121900   @ k =   0.3333   0.3333   0.1250
 cond. band min:       5.4868550175   @ k =   0.1667   0.1667   0.0000
 fundamental gap:      0.0075428275
 Fermi energy:         5.4862472487

 spin component 1

 k-point     1 :       0.0000    0.0000    0.0000
  band No.  band energies     occupation 
      1     -46.4088      1.00000
      2     -46.4013      1.00000
      3     -46.3013      1.00000
      4     -46.3013      1.00000
      5     -46.1660      1.00000
      6     -46.1660      1.00000
      7     -13.9400      1.00000
      8     -12.7965      1.00000
      9     -12.0085      1.00000
     10     -12.0085      1.00000
     11      -2.7598      1.00000
     12      -2.5437      1.00000
     13      -1.4147      1.00000
     14      -1.4147      1.00000
     15      -0.9754      1.00000
     16       1.7148      1.00000
     17       2.0002      1.00000
     18       2.0002      1.00000
     19       2.1624      1.00000
     20       2.2598      1.00000
     21       2.2598      1.00000
     22       2.4195      1.00000
     23       2.9472      1.00000
     24       3.3179      1.00000
     25       4.1488      1.00000
     26       4.1488      1.00000
     27       4.7098      1.00000
     28       4.8149      1.00000
     29       5.7695      0.00000
     30       8.1772      0.00000
     31       8.1772      0.00000
     32       9.1694      0.00000
     33      11.6961      0.00000
     34      15.5246      0.00000
     35      15.5246      0.00000
     36      18.3779      0.00000

 k-point     2 :       0.1667    0.0000    0.0000
  band No.  band energies     occupation 
      1     -46.4084      1.00000
      2     -46.4018      1.00000
      3     -46.3011      1.00000
      4     -46.3011      1.00000
      5     -46.1663      1.00000
      6     -46.1663      1.00000
      7     -13.8472      1.00000
      8     -12.8037      1.00000
      9     -12.1082      1.00000
     10     -12.0501      1.00000
     11      -2.5807      1.00000
     12      -2.3299      1.00000
     13      -1.3964      1.00000
     14      -1.3877      1.00000
     15      -0.8110      1.00000
     16       1.2709      1.00000
     17       1.3738      1.00000
     18       1.3943      1.00000
     19       1.9465      1.00000
     20       2.1080      1.00000
     21       2.7134      1.00000
     22       2.8465      1.00000
     23       3.2443      1.00000
     24       3.5853      1.00000
     25       3.8431      1.00000
     26       4.0959      1.00000
     27       4.7233      1.00000
     28       5.4191      0.97121
     29       5.6619      0.00000
     30       8.0694      0.00000
     31       8.1034      0.00000
     32       9.0089      0.00000
     33      12.1012      0.00000
     34      15.4860      0.00000
     35      15.6831      0.00000
     36      18.2457      0.00000

 k-point     3 :       0.3333    0.0000    0.0000
  band No.  band energies     occupation 
      1     -46.4070      1.00000
      2     -46.4031      1.00000
      3     -46.3007      1.00000
      4     -46.3007      1.00000
      5     -46.1668      1.00000
      6     -46.1668      1.00000
      7     -13.5873      1.00000
      8     -12.9106      1.00000
      9     -12.2671      1.00000
     10     -12.1526      1.00000
     11      -2.0988      1.00000
     12      -1.8298      1.00000
     13      -1.3527      1.00000
     14      -1.3362      1.00000
     15      -0.3185      1.00000
     16       0.4082      1.00000
     17       0.4621      1.00000
     18       1.1245      1.00000
     19       1.4024      1.00000
     20       1.4662      1.00000
     21       3.2845      1.00000
     22       3.3533      1.00000
     23       3.5479      1.00000
     24       3.6734      1.00000
     25       3.8829      1.00000
     26       4.0880      1.00000
     27       4.6121      1.00000
     28       5.2991      1.00000
     29       6.5843      0.00000
     30       7.8659      0.00000
     31       7.9292      0.00000
     32       8.5014      0.00000
     33      13.0933      0.00000
     34      15.1239      0.00000
     35      16.1888      0.00000
     36      17.7733      0.00000

 k-point     4 :       0.5000    0.0000    0.0000
  band No.  band energies     occupation 
      1     -46.4050      1.00000
      2     -46.4050      1.00000
      3     -46.3005      1.00000
      4     -46.3005      1.00000
      5     -46.1670      1.00000
      6     -46.1670      1.00000
      7     -13.2257      1.00000
      8     -13.2257      1.00000
      9     -12.2595      1.00000
     10     -12.2595      1.00000
     11      -1.6092      1.00000
     12      -1.6092      1.00000
     13      -1.3194      1.00000
     14      -1.3194      1.00000
     15      -0.0507      1.00000
     16      -0.0507      1.00000
     17       0.4781      1.00000
     18       0.4781      1.00000
     19       1.1498      1.00000
     20       1.1498      1.00000
     21       3.4956      1.00000
     22       3.4956      1.00000
     23       3.8145      1.00000
     24       3.8145      1.00000
     25       3.8890      1.00000
     26       3.8890      1.00000
     27       4.8839      1.00000
     28       4.8839      1.00000
     29       7.6609      0.00000
     30       7.6609      0.00000
     31       7.7991      0.00000
     32       7.7991      0.00000
     33      14.2368      0.00000
     34      14.2368      0.00000
     35      16.9811      0.00000
     36      16.9811      0.00000

 k-point     5 :       0.1667    0.1667    0.0000
  band No.  band energies     occupation 
      1     -46.4080      1.00000
      2     -46.4022      1.00000
      3     -46.3014      1.00000
      4     -46.3006      1.00000
      5     -46.1668      1.00000
      6     -46.1660      1.00000
      7     -13.7672      1.00000
      8     -12.8244      1.00000
      9     -12.2068      1.00000
     10     -12.0447      1.00000
     11      -2.6725      1.00000
     12      -1.9247      1.00000
     13      -1.4307      1.00000
     14      -1.3351      1.00000
     15      -0.6563      1.00000
     16       0.4556      1.00000
     17       1.1886      1.00000
     18       1.5965      1.00000
     19       2.2642      1.00000
     20       2.3603      1.00000
     21       2.4474      1.00000
     22       2.5870      1.00000
     23       3.1793      1.00000
     24       3.6191      1.00000
     25       3.7964      1.00000
     26       4.4093      1.00000
     27       4.6603      1.00000
     28       5.6169      0.00011
     29       5.6553      0.00000
     30       7.8968      0.00000
     31       8.1704      0.00000
     32       8.8296      0.00000
     33      12.4899      0.00000
     34      15.5701      0.00000
     35      15.7297      0.00000
     36      18.1234      0.00000

 k-point     6 :       0.3333    0.1667    0.0000
  band No.  band energies     occupation 
      1     -46.4067      1.00000
      2     -46.4034      1.00000
      3     -46.3013      1.00000
      4     -46.3005      1.00000
      5     -46.1670      1.00000
      6     -46.1662      1.00000
      7     -13.5459      1.00000
      8     -12.9566      1.00000
      9     -12.2868      1.00000
     10     -12.1193      1.00000
     11      -2.4727      1.00000
     12      -1.5661      1.00000
     13      -1.4174      1.00000
     14      -1.3188      1.00000
     15      -0.2000      1.00000
     16      -0.0349      1.00000
     17       1.0617      1.00000
     18       1.1040      1.00000
     19       1.7217      1.00000
     20       1.7812      1.00000
     21       2.9637      1.00000
     22       3.0199      1.00000
     23       3.2288      1.00000
     24       3.5745      1.00000
     25       3.8996      1.00000
     26       4.0475      1.00000
     27       4.8675      1.00000
     28       5.4621      0.75280
     29       6.4771      0.00000
     30       7.7947      0.00000
     31       8.0809      0.00000
     32       8.2927      0.00000
     33      13.4245      0.00000
     34      15.3146      0.00000
     35      16.1583      0.00000
     36      17.6800      0.00000

 k-point     7 :       0.5000    0.1667    0.0000
  band No.  band energies     occupation 
      1     -46.4050      1.00000
      2     -46.4050      1.00000
      3     -46.3008      1.00000
      4     -46.3008      1.00000
      5     -46.1667      1.00000
      6     -46.1667      1.00000
      7     -13.2399      1.00000
      8     -13.2399      1.00000
      9     -12.2310      1.00000
     10     -12.2310      1.00000
     11      -1.9780      1.00000
     12      -1.9780      1.00000
     13      -1.3630      1.00000
     14      -1.3630      1.00000
     15       0.2984      1.00000
     16       0.2984      1.00000
     17       0.7679      1.00000
     18       0.7679      1.00000
     19       1.3238      1.00000
     20       1.3238      1.00000
     21       3.2993      1.00000
     22       3.2993      1.00000
     23       3.6023      1.00000
     24       3.6023      1.00000
     25       3.6171      1.00000
     26       3.6171      1.00000
     27       5.1815      1.00000
     28       5.1815      1.00000
     29       7.4576      0.00000
     30       7.4576      0.00000
     31       7.8951      0.00000
     32       7.8951      0.00000
     33      14.4923      0.00000
     34      14.4923      0.00000
     35      16.9256      0.00000
     36      16.9256      0.00000

 k-point     8 :       0.3333    0.3333    0.0000
  band No.  band energies     occupation 
      1     -46.4060      1.00000
      2     -46.4040      1.00000
      3     -46.3016      1.00000
      4     -46.3009      1.00000
      5     -46.1667      1.00000
      6     -46.1659      1.00000
      7     -13.4308      1.00000
      8     -13.0903      1.00000
      9     -12.2567      1.00000
     10     -12.1150      1.00000
     11      -2.6531      1.00000
     12      -1.9671      1.00000
     13      -1.4626      1.00000
     14      -1.3720      1.00000
     15       0.1913      1.00000
     16       0.5196      1.00000
     17       1.1774      1.00000
     18       1.3169      1.00000
     19       2.2736      1.00000
     20       2.2910      1.00000
     21       2.4218      1.00000
     22       2.5221      1.00000
[...]
      2     -46.5107      1.00000
      3     -46.3719      1.00000
      4     -46.3719      1.00000
      5     -46.2121      1.00000
      6     -46.2121      1.00000
      7     -12.7746      1.00000
      8     -12.7746      1.00000
      9     -12.5125      1.00000
     10     -12.5125      1.00000
     11      -1.6033      1.00000
     12      -1.6033      1.00000
     13      -1.1624      1.00000
     14      -1.1624      1.00000
     15       0.3291      1.00000
     16       0.3291      1.00000
     17       0.9178      1.00000
     18       0.9178      1.00000
     19       1.6128      1.00000
     20       1.6128      1.00000
     21       2.5910      1.00000
     22       2.5910      1.00000
     23       2.6148      1.00000
     24       2.6148      1.00000
     25       3.7432      1.00000
     26       3.7432      1.00000
     27       5.1673      1.00000
     28       5.1673      1.00000
     29       5.4413      0.89839
     30       5.4413      0.89839
     31       8.3904      0.00000
     32       8.3904      0.00000
     33      16.6086      0.00000
     34      16.6086      0.00000
     35      17.6680      0.00000
     36      17.6680      0.00000

 k-point    48 :       0.3333    0.3333    0.5000
  band No.  band energies     occupation 
      1     -46.5107      1.00000
      2     -46.5104      1.00000
      3     -46.3723      1.00000
      4     -46.3719      1.00000
      5     -46.2122      1.00000
      6     -46.2122      1.00000
      7     -12.7692      1.00000
      8     -12.7348      1.00000
      9     -12.5478      1.00000
     10     -12.5157      1.00000
     11      -1.5911      1.00000
     12      -1.2655      1.00000
     13      -1.1901      1.00000
     14      -1.0147      1.00000
     15      -0.6206      1.00000
     16       0.4615      1.00000
     17       0.5544      1.00000
     18       0.8937      1.00000
     19       1.4394      1.00000
     20       1.7198      1.00000
     21       2.5847      1.00000
     22       2.6121      1.00000
     23       2.6155      1.00000
     24       3.1324      1.00000
     25       3.7484      1.00000
     26       4.5276      1.00000
     27       4.8272      1.00000
     28       5.1506      1.00000
     29       5.4211      0.96731
     30       6.4660      0.00000
     31       7.2803      0.00000
     32       8.3541      0.00000
     33      16.3584      0.00000
     34      16.8772      0.00000
     35      17.1610      0.00000
     36      18.0879      0.00000

 k-point    49 :       0.5000    0.3333    0.5000
  band No.  band energies     occupation 
      1     -46.5104      1.00000
      2     -46.5104      1.00000
      3     -46.3722      1.00000
      4     -46.3722      1.00000
      5     -46.2122      1.00000
      6     -46.2122      1.00000
      7     -12.7324      1.00000
      8     -12.7324      1.00000
      9     -12.5477      1.00000
     10     -12.5477      1.00000
     11      -1.3592      1.00000
     12      -1.3592      1.00000
     13      -1.1914      1.00000
     14      -1.1914      1.00000
     15      -0.2310      1.00000
     16      -0.2310      1.00000
     17       0.6678      1.00000
     18       0.6678      1.00000
     19       1.6050      1.00000
     20       1.6050      1.00000
     21       2.6190      1.00000
     22       2.6190      1.00000
     23       3.0708      1.00000
     24       3.0708      1.00000
     25       4.1103      1.00000
     26       4.1103      1.00000
     27       5.0995      1.00000
     28       5.0995      1.00000
     29       5.8764      0.00000
     30       5.8764      0.00000
     31       7.8273      0.00000
     32       7.8273      0.00000
     33      16.5332      0.00000
     34      16.5332      0.00000
     35      17.4370      0.00000
     36      17.4370      0.00000

 k-point    50 :       0.5000    0.5000    0.5000
  band No.  band energies     occupation 
      1     -46.5103      1.00000
      2     -46.5103      1.00000
      3     -46.3723      1.00000
      4     -46.3723      1.00000
      5     -46.2122      1.00000
      6     -46.2122      1.00000
      7     -12.7036      1.00000
      8     -12.7036      1.00000
      9     -12.5727      1.00000
     10     -12.5727      1.00000
     11      -1.2291      1.00000
     12      -1.2291      1.00000
     13      -1.0952      1.00000
     14      -1.0952      1.00000
     15      -0.5973      1.00000
     16      -0.5973      1.00000
     17       0.5619      1.00000
     18       0.5619      1.00000
     19       1.6090      1.00000
     20       1.6090      1.00000
     21       2.6243      1.00000
     22       2.6243      1.00000
     23       3.2460      1.00000
     24       3.2460      1.00000
     25       4.5629      1.00000
     26       4.5629      1.00000
     27       4.6761      1.00000
     28       4.6761      1.00000
     29       6.4623      0.00000
     30       6.4623      0.00000
     31       7.3024      0.00000
     32       7.3024      0.00000
     33      16.4029      0.00000
     34      16.4029      0.00000
     35      17.4622      0.00000
     36      17.4622      0.00000


--------------------------------------------------------------------------------------------------------


 soft charge-density along one line, spin component            1
         0         1         2         3         4         5         6         7         8         9
 total charge-density along one line
 
 soft charge-density along one line, spin component            2
         0         1         2         3         4         5         6         7         8         9
 total charge-density along one line
 
 pseudopotential strength for first ion, spin component:            1
-40.497  -0.000   0.032  10.120   0.000  -0.019   0.000  -0.000
 -0.000 -40.596  -0.000   0.000  10.176   0.000   0.000  -0.000
  0.032  -0.000 -40.497  -0.019   0.000  10.120  -0.000   0.000
 10.120   0.000  -0.019   7.362  -0.000   0.005  -0.000   0.000
  0.000  10.176   0.000  -0.000   7.351  -0.000  -0.000   0.000
 -0.019   0.000  10.120   0.005  -0.000   7.362   0.000  -0.000
  0.000   0.000  -0.000  -0.000  -0.000   0.000  -5.080  -0.000
 -0.000  -0.000   0.000   0.000   0.000  -0.000  -0.000  -5.094
  0.000  -0.000  -0.000  -0.000   0.000   0.000  -0.082   0.000
  0.000   0.000   0.000  -0.000  -0.000   0.000  -0.000  -0.049
  0.000   0.000   0.000  -0.000  -0.000  -0.000   0.000   0.000
  0.000   0.000  -0.000  -0.000  -0.000   0.000  -5.044  -0.000
 -0.000  -0.000   0.000   0.000   0.000  -0.000  -0.000  -5.059
  0.000  -0.000  -0.000  -0.000   0.000   0.000  -0.092   0.000
  0.000   0.000   0.000  -0.000  -0.000   0.000  -0.000  -0.055
  0.000   0.000   0.000  -0.000  -0.000  -0.000   0.000   0.000
  0.000   0.000  -0.000   0.000   0.000  -0.000  -0.012   0.000
  0.000   0.000  -0.000   0.000   0.000  -0.000  -0.025   0.000
 pseudopotential strength for first ion, spin component:            2
-40.533  -0.000   0.038  10.139   0.000  -0.022   0.000  -0.000
 -0.000 -40.621  -0.000   0.000  10.188   0.000   0.000  -0.000
  0.038  -0.000 -40.533  -0.022   0.000  10.139  -0.000   0.000
 10.139   0.000  -0.022   7.357  -0.000   0.005  -0.000   0.000
  0.000  10.188   0.000  -0.000   7.348  -0.000  -0.000   0.000
 -0.022   0.000  10.139   0.005  -0.000   7.357   0.000  -0.000
  0.000   0.000  -0.000  -0.000  -0.000   0.000  -5.098  -0.000
 -0.000  -0.000   0.000   0.000   0.000  -0.000  -0.000  -5.125
  0.000  -0.000  -0.000  -0.000   0.000   0.000  -0.082   0.000
  0.000   0.000  -0.000  -0.000  -0.000   0.000  -0.000  -0.040
  0.000   0.000   0.000  -0.000  -0.000  -0.000  -0.000   0.000
  0.000   0.000  -0.000  -0.000  -0.000   0.000  -5.064  -0.000
 -0.000  -0.000   0.000   0.000   0.000  -0.000  -0.000  -5.094
  0.000  -0.000  -0.000  -0.000   0.000   0.000  -0.091   0.000
  0.000   0.000  -0.000  -0.000  -0.000   0.000  -0.000  -0.045
  0.000   0.000   0.000  -0.000  -0.000  -0.000  -0.000   0.000
  0.000   0.000  -0.000   0.000   0.000  -0.000  -0.015   0.000
  0.000   0.000  -0.000   0.000   0.000  -0.000  -0.029   0.000
 total augmentation occupancy for first ion, spin component:            1
  1.995   0.000   0.000  -0.035  -0.000   0.001   0.000   0.000   0.000   0.000   0.000   0.000   0.000   0.000   0.000   0.000
  0.000   1.995   0.000  -0.000  -0.036  -0.000   0.000   0.000   0.000   0.000   0.000   0.000   0.000   0.000   0.000   0.000
  0.000   0.000   1.995   0.001  -0.000  -0.035   0.000   0.000   0.000   0.000   0.000   0.000   0.000   0.000   0.000   0.000
 -0.035  -0.000   0.001   0.173   0.000  -0.019   0.000   0.000   0.000   0.000   0.000   0.000   0.000   0.000   0.000   0.000
 -0.000  -0.036  -0.000   0.000   0.203   0.000   0.000   0.000   0.000   0.000   0.000   0.000   0.000   0.000   0.000   0.000
  0.001  -0.000  -0.035  -0.019   0.000   0.173   0.000   0.000   0.000   0.000   0.000   0.000   0.000   0.000   0.000   0.000
  0.000   0.000   0.000   0.000   0.000   0.000   3.967   0.000   1.495   0.000   0.000  -1.952  -0.000  -1.207  -0.000  -0.000
  0.000   0.000   0.000   0.000   0.000   0.000   0.000   3.507   0.000   1.268  -0.000  -0.000  -1.652  -0.000  -0.994   0.000
  0.000   0.000   0.000   0.000   0.000   0.000   1.495   0.000   3.289   0.000   0.000  -1.179  -0.000  -1.443  -0.000  -0.000
  0.000   0.000   0.000   0.000   0.000   0.000   0.000   1.268   0.000   3.507   0.000  -0.000  -0.994  -0.000  -1.652  -0.000
  0.000   0.000   0.000   0.000   0.000   0.000   0.000  -0.000   0.000   0.000   2.103  -0.000   0.000  -0.000  -0.000  -0.592
  0.000   0.000   0.000   0.000   0.000   0.000  -1.952  -0.000  -1.179  -0.000  -0.000   1.468   0.000   0.592   0.000   0.000
  0.000   0.000   0.000   0.000   0.000   0.000  -0.000  -1.652  -0.000  -0.994   0.000   0.000   1.431   0.000   0.422  -0.000
  0.000   0.000   0.000   0.000   0.000   0.000  -1.207  -0.000  -1.443  -0.000  -0.000   0.592   0.000   1.358   0.000   0.000
  0.000   0.000   0.000   0.000   0.000   0.000  -0.000  -0.994  -0.000  -1.652  -0.000   0.000   0.422   0.000   1.431   0.000
  0.000   0.000   0.000   0.000   0.000   0.000  -0.000   0.000  -0.000  -0.000  -0.592   0.000  -0.000   0.000   0.000   1.035
  0.000   0.000   0.000   0.000   0.000   0.000  -0.207  -0.000   0.218  -0.000  -0.000   0.256   0.000  -0.298   0.000   0.000
  0.000   0.000   0.000   0.000   0.000   0.000   0.022   0.000  -0.013   0.000   0.000  -0.033  -0.000   0.037  -0.000  -0.000
 total augmentation occupancy for first ion, spin component:            2
 -0.000   0.000   0.000   0.000   0.000   0.000   0.000   0.000   0.000   0.000   0.000   0.000   0.000   0.000   0.000   0.000
  0.000   0.000   0.000   0.000   0.000   0.000   0.000   0.000   0.000   0.000   0.000   0.000   0.000   0.000   0.000   0.000
  0.000   0.000  -0.000   0.000   0.000   0.000   0.000   0.000   0.000   0.000   0.000   0.000   0.000   0.000   0.000   0.000
  0.000   0.000   0.000   0.000   0.000  -0.000   0.000   0.000   0.000   0.000   0.000   0.000   0.000   0.000   0.000   0.000
  0.000   0.000   0.000   0.000   0.000   0.000   0.000   0.000   0.000   0.000   0.000   0.000   0.000   0.000   0.000   0.000
  0.000   0.000   0.000  -0.000   0.000   0.000   0.000   0.000   0.000   0.000   0.000   0.000   0.000   0.000   0.000   0.000
  0.000   0.000   0.000   0.000   0.000   0.000   0.008   0.000   0.002   0.000   0.000  -0.005  -0.000  -0.002  -0.000  -0.000
  0.000   0.000   0.000   0.000   0.000   0.000   0.000   0.007   0.000   0.003  -0.000  -0.000   0.005  -0.000  -0.011  -0.000
  0.000   0.000   0.000   0.000   0.000   0.000   0.002   0.000   0.007   0.000   0.000  -0.002  -0.000  -0.004  -0.000  -0.000
  0.000   0.000   0.000   0.000   0.000   0.000   0.000   0.003   0.000   0.007   0.000  -0.000  -0.011  -0.000   0.005   0.000
  0.000   0.000   0.000   0.000   0.000   0.000   0.000  -0.000   0.000   0.000   0.005  -0.000  -0.000  -0.000   0.000   0.020
  0.000   0.000   0.000   0.000   0.000   0.000  -0.005  -0.000  -0.002  -0.000  -0.000   0.002   0.000   0.002   0.000   0.000
  0.000   0.000   0.000   0.000   0.000   0.000  -0.000   0.005  -0.000  -0.011  -0.000   0.000  -0.030   0.000   0.031   0.000
  0.000   0.000   0.000   0.000   0.000   0.000  -0.002  -0.000  -0.004  -0.000  -0.000   0.002   0.000   0.001   0.000   0.000
  0.000   0.000   0.000   0.000   0.000   0.000  -0.000  -0.011  -0.000   0.005   0.000   0.000   0.031   0.000  -0.030  -0.000
  0.000   0.000   0.000   0.000   0.000   0.000  -0.000  -0.000  -0.000   0.000   0.020   0.000   0.000   0.000  -0.000  -0.082
  0.000   0.000   0.000   0.000   0.000   0.000  -0.003  -0.000  -0.003  -0.000  -0.000   0.002   0.000   0.000   0.000   0.000
  0.000   0.000   0.000   0.000   0.000   0.000   0.002   0.000   0.002   0.000   0.000  -0.001  -0.000  -0.000  -0.000  -0.000


------------------------ aborting loop because EDIFF is reached ----------------------------------------





 total charge

# of ion       s       p       d       tot
------------------------------------------
    1        0.334   6.324   7.656  14.314
    2        0.334   6.324   7.656  14.314
    3        1.585   3.377   0.000   4.962
    4        1.585   3.377   0.000   4.962
    5        1.585   3.377   0.000   4.962
    6        1.585   3.377   0.000   4.962
--------------------------------------------------
tot          7.007  26.155  15.313  48.474



 magnetization (x)

# of ion       s       p       d       tot
------------------------------------------
    1        0.000   0.001  -0.067  -0.066
    2        0.000   0.001  -0.067  -0.066
    3       -0.001  -0.041   0.000  -0.042
    4       -0.001  -0.041   0.000  -0.042
    5       -0.001  -0.041   0.000  -0.042
    6       -0.001  -0.041   0.000  -0.042
--------------------------------------------------
tot         -0.002  -0.163  -0.133  -0.298
 
    CHARGE:  cpu time      0.1995: real time      0.1996
    FORLOC:  cpu time      0.0013: real time      0.0013
    FORNL :  cpu time      0.4855: real time      0.4857
    FORCOR:  cpu time      0.6083: real time      0.6084
    FORHAR:  cpu time      0.0043: real time      0.0043
    MIXING:  cpu time      0.0012: real time      0.0012
    OFIELD:  cpu time      0.0000: real time      0.0000

 ---------------------------------------------------------------------------------------------

         DFTD3 V3.0 Rev 1        
 DF pbe       
 parameters
 k1-k3        =   16.0000    1.3333   -4.0000
 Edisp (eV)   -1.41402

 E6    (eV) :    -0.8848
 E8    (eV) :    -0.5293
 % E8        : 37.43
    FORVDW:  cpu time      0.0126: real time      0.0126

 VOLUME and BASIS-vectors are now :
 -----------------------------------------------------------------------------
  energy-cutoff  :      450.00
  volume of cell :       64.34
      direct lattice vectors                 reciprocal lattice vectors
     4.522230460  0.000000000  0.000000000     0.221129818 -0.000000000  0.000000000
     0.000000000  4.522230460  0.000000000     0.000000000  0.221129818  0.000000000
     0.000000000  0.000000000  3.146273630    -0.000000000 -0.000000000  0.317836310

  length of vectors
     4.522230460  4.522230460  3.146273630     0.221129818  0.221129818  0.317836310


 FORCES acting on ions
    electron-ion (+dipol)            ewald-force                    non-local-force                 convergence-correction
 -----------------------------------------------------------------------------------------------
   0.297E-11 -.231E-11 -.244E-11   0.284E-13 0.000E+00 0.158E-13   0.792E-24 0.000E+00 0.000E+00   0.221E-13 0.571E-13 0.487E-14
   -.125E-13 -.537E-14 -.125E-11   0.284E-13 0.114E-12 -.100E-13   0.121E-23 0.000E+00 0.000E+00   -.499E-14 -.416E-13 -.855E-14
   0.374E+02 -.374E+02 0.585E-11   -.386E+02 0.386E+02 0.163E-13   0.119E+01 -.119E+01 -.416E-16   0.664E-04 -.664E-04 -.393E-13
   -.374E+02 0.374E+02 0.116E-11   0.386E+02 -.386E+02 -.574E-14   -.119E+01 0.119E+01 0.416E-16   -.664E-04 0.664E-04 0.324E-13
   0.374E+02 0.374E+02 0.223E-08   -.386E+02 -.386E+02 0.191E-12   0.119E+01 0.119E+01 0.111E-15   0.664E-04 0.664E-04 0.311E-11
   -.374E+02 -.374E+02 -.224E-08   0.386E+02 0.386E+02 -.209E-12   -.119E+01 -.119E+01 -.111E-15   -.664E-04 -.664E-04 -.310E-11
 -----------------------------------------------------------------------------------------------
   0.106E-10 -.557E-11 -.291E-11   -.711E-14 0.355E-13 -.172E-14   0.444E-15 -.222E-15 0.000E+00   0.105E-13 0.179E-13 -.174E-14
 
 
 POSITION                                       TOTAL-FORCE (eV/Angst)
 -----------------------------------------------------------------------------------
      2.26112      2.26112      1.57314        -0.000000      0.000000      0.000000
      0.00000      0.00000      0.00000        -0.000000      0.000000      0.000000
      3.65465      0.86758      1.57314        -0.071402      0.071402      0.000000
      0.86758      3.65465      1.57314         0.071402     -0.071402     -0.000000
      1.39353      1.39353      0.00000        -0.071402     -0.071402     -0.000000
      3.12870      3.12870      0.00000         0.071402      0.071402      0.000000
 -----------------------------------------------------------------------------------
    total drift:                                0.000000     -0.000000     -0.000000


--------------------------------------------------------------------------------------------------------



  FREE ENERGIE OF THE ION-ELECTRON SYSTEM (eV)
  ---------------------------------------------------
  free  energy   TOTEN  =       -33.53464088 eV

  energy  without entropy=      -33.52959133  energy(sigma->0) =      -33.53211611
 


--------------------------------------------------------------------------------------------------------


    POTLOK:  cpu time      0.6087: real time      0.6087


--------------------------------------------------------------------------------------------------------


     LOOP+:  cpu time     46.9287: real time     47.2433
    4ORBIT:  cpu time      0.0000: real time      0.0000



 total charge

# of ion       s       p       d       tot
------------------------------------------
    1        0.334   6.324   7.656  14.314
    2        0.334   6.324   7.656  14.314
    3        1.585   3.377   0.000   4.962
    4        1.585   3.377   0.000   4.962
    5        1.585   3.377   0.000   4.962
    6        1.585   3.377   0.000   4.962
--------------------------------------------------
tot          7.007  26.155  15.313  48.474



 magnetization (x)

# of ion       s       p       d       tot
------------------------------------------
    1        0.000   0.001  -0.067  -0.066
    2        0.000   0.001  -0.067  -0.066
    3       -0.001  -0.041   0.000  -0.042
    4       -0.001  -0.041   0.000  -0.042
    5       -0.001  -0.041   0.000  -0.042
    6       -0.001  -0.041   0.000  -0.042
--------------------------------------------------
tot         -0.002  -0.163  -0.133  -0.298
 

 total amount of memory used by VASP MPI-rank0    85679. kBytes
=======================================================================

   base      :      30000. kBytes
   nonl-proj :      20584. kBytes
   fftplans  :       7420. kBytes
   grid      :       6062. kBytes
   one-center:        186. kBytes
   wavefun   :      21427. kBytes
 
  
  
 General timing and accounting informations for this job:
 ========================================================
  
                  Total CPU time used (sec):       48.073
                            User time (sec):       46.433
                          System time (sec):        1.640
                         Elapsed time (sec):       48.863
  
                   Maximum memory used (kb):      369388.
                   Average memory used (kb):          N/A
  
                          Minor page faults:       347273
                          Major page faults:           13
                 Voluntary context switches:          208
