       N       E                     dE             d eps       ncg     rms          rms(c)
DAV:   1     0.467018124401E+03    0.46702E+03   -0.27701E+04  1352   0.179E+03
DAV:   2    -0.102686981922E+01   -0.46804E+03   -0.45305E+03  1480   0.503E+02
DAV:   3    -0.241499397416E+02   -0.23123E+02   -0.22858E+02  1472   0.114E+02
DAV:   4    -0.244148730575E+02   -0.26493E+00   -0.26484E+00  1444   0.134E+01
DAV:   5    -0.244176277575E+02   -0.27547E-02   -0.27545E-02  1492   0.139E+00    0.171E+01
DAV:   6    -0.227622716040E+02    0.16554E+01   -0.15720E+01  1412   0.359E+01    0.744E+00
DAV:   7    -0.221899354901E+02    0.57234E+00   -0.25025E+00  1432   0.172E+01    0.380E+00
DAV:   8    -0.222069249017E+02   -0.16989E-01   -0.42833E-01  1428   0.420E+00    0.147E+00
DAV:   9    -0.222018570787E+02    0.50678E-02   -0.25087E-02  1484   0.141E+00    0.468E-01
DAV:  10    -0.222033560486E+02   -0.14990E-02   -0.27497E-03  1424   0.408E-01    0.199E-01
DAV:  11    -0.222035913943E+02   -0.23535E-03   -0.38256E-04  1484   0.148E-01    0.940E-02
DAV:  12    -0.222036464557E+02   -0.55061E-04   -0.39962E-05  1428   0.533E-02    0.269E-02
DAV:  13    -0.222036568680E+02   -0.10412E-04   -0.76941E-06  1444   0.220E-02    0.150E-02
DAV:  14    -0.222036610365E+02   -0.41686E-05   -0.63192E-06  1332   0.201E-02    0.774E-03
DAV:  15    -0.222036623631E+02   -0.13265E-05   -0.86980E-07   852   0.784E-03    0.672E-03
DAV:  16    -0.222036634012E+02   -0.10381E-05   -0.13224E-06   820   0.976E-03    0.411E-03
DAV:  17    -0.222036640247E+02   -0.62349E-06   -0.12728E-06   800   0.948E-03
   1 F= -.23447388E+02 E0= -.23445111E+02  d E =-.455317E-02  mag=    -0.1028
