 vasp.6.4.3 19Mar24 (build Nov 27 2025 15:18:09) complex                         
 executed on              LinuxNV date 2026.06.04  16:41:42
 running    4 mpi-ranks, with    1 threads/rank, on    1 nodes
 distrk:  each k-point on    4 cores,    1 groups
 distr:  one band on NCORE=   1 cores,    4 groups
 OpenACC runtime initialized ...    0 GPUs detected


--------------------------------------------------------------------------------------------------------


 INCAR:
   SYSTEM = pddmc
   ENCUT = 520
   PREC = Accurate
   LASPH = .TRUE.
   ADDGRID = .TRUE.
   ISPIN = 2
   IVDW = 12
   EDIFF = 1e-06
   NELM = 200
   NELMIN = 5
   ALGO = Normal
   NCORE = 1
   LREAL = .FALSE.
   LWAVE = .FALSE.
   LCHARG = .FALSE.
   LORBIT = 11
   ISYM = 2
   IBRION = -1
   NSW = 0
   ISIF = 0
   ISMEAR = 0
   SIGMA = 0.05
   EDIFFG = -0.01

 POTCAR:    PAW_PBE Pd_pv 28Jan2005               
 POTCAR:    PAW_PBE O 08Apr2002                   
 -----------------------------------------------------------------------------
|                                                                             |
|           W    W    AA    RRRRR   N    N  II  N    N   GGGG   !!!           |
|           W    W   A  A   R    R  NN   N  II  NN   N  G    G  !!!           |
|           W    W  A    A  R    R  N N  N  II  N N  N  G       !!!           |
|           W WW W  AAAAAA  RRRRR   N  N N  II  N  N N  G  GGG   !            |
|           WW  WW  A    A  R   R   N   NN  II  N   NN  G    G                |
|           W    W  A    A  R    R  N    N  II  N    N   GGGG   !!!           |
|                                                                             |
|     You use a magnetic or noncollinear calculation, but did not specify     |
|     the initial magnetic moment with the MAGMOM tag. Note that a            |
|     default of 1 will be used for all atoms. This ferromagnetic setup       |
|     may break the symmetry of the crystal, in particular it may rule        |
|     out finding an antiferromagnetic solution. Thence, we recommend         |
|     setting the initial magnetic moment manually or verifying carefully     |
|     that this magnetic setup is desired.                                    |
|                                                                             |
 -----------------------------------------------------------------------------

 POTCAR:    PAW_PBE Pd_pv 28Jan2005               
   SHA256 =  3ce661545bbde58da9a95410dea32907db2844916708bcd35bbe03ee66324d7f Pd_pv/POTCAR          
   COPYR  = (c) Copyright 28Jan2005 Georg Kresse                                                    
   COPYR  = This file is part of the software VASP. Any use, copying, and all other rights are regul
   COPYR  = If you do not have a valid VASP license, you may not use, copy or distribute this file. 
   VRHFIN =Pd: 4p5s4d                                                                               
   LEXCH  = PE                                                                                      
   EATOM  =  2621.5550 eV,  192.6789 Ry                                                             
                                                                                                    
   TITEL  = PAW_PBE Pd_pv 28Jan2005                                                                 
   LULTRA =        F    use ultrasoft PP ?                                                          
   IUNSCR =        1    unscreen: 0-lin 1-nonlin 2-no                                               
   RPACOR =    2.250    partial core radius                                                         
   POMASS =  106.420; ZVAL   =   16.000    mass and valenz                                          
   RCORE  =    2.400    outmost cutoff radius                                                       
   RWIGS  =    2.300; RWIGS  =    1.217    wigner-seitz radius (au A)                               
   ENMAX  =  250.925; ENMIN  =  188.194 eV                                                          
   ICORE  =        3    local potential                                                             
   LCOR   =        T    correct aug charges                                                         
   LPAW   =        T    paw PP                                                                      
   EAUG   =  473.067                                                                                
   DEXC   =    0.000                                                                                
   RMAX   =    2.449    core radius for proj-oper                                                   
   RAUG   =    1.300    factor for augmentation sphere                                              
   RDEP   =    2.405    radius for radial grids                                                     
   RDEPT  =    1.966    core radius for aug-charge                                                  
                                                                                                    
   Atomic configuration                                                                             
   11 entries                                                                                       
     n  l   j            E        occ.                                                              
     1  0  0.50    -24164.6632   2.0000                                                             
     2  0  0.50     -3530.9218   2.0000                                                             
     2  1  1.50     -3165.6822   6.0000                                                             
     3  0  0.50      -639.4578   2.0000                                                             
     3  1  1.50      -519.4532   6.0000                                                             
     3  2  2.50      -328.9758  10.0000                                                             
     4  0  0.50       -88.7014   2.0000                                                             
     4  1  1.50       -54.4541   6.0000                                                             
     4  2  2.50        -6.6878   9.0000                                                             
     5  0  0.50        -4.3543   1.0000                                                             
     4  3  2.50        -1.3606   0.0000                                                             
   Description                                                                                      
     l       E           TYP  RCUT    TYP  RCUT                                                     
     1    -54.4540524     23  2.100                                                                 
     1      4.0817478     23  2.100                                                                 
     2     -6.6878326     23  2.400                                                                 
     2     -4.0817478     23  2.400                                                                 
     0     -4.3542962     23  2.400                                                                 
     0     13.6058260     23  2.400                                                                 
     3     -5.4423304     23  2.400                                                                 
  local pseudopotential read in
  partial core-charges read in
  partial kinetic energy density read in
  atomic valenz-charges read in
  non local Contribution for L=            1  read in
    real space projection operators read in
  non local Contribution for L=            1  read in
    real space projection operators read in
  non local Contribution for L=            2  read in
    real space projection operators read in
  non local Contribution for L=            2  read in
    real space projection operators read in
  non local Contribution for L=            0  read in
    real space projection operators read in
  non local Contribution for L=            0  read in
    real space projection operators read in
    PAW grid and wavefunctions read in
 
   number of l-projection  operators is LMAX  =            6
   number of lm-projection operators is LMMAX =           18
 
 POTCAR:    PAW_PBE O 08Apr2002                   
   SHA256 =  818f92134a0a090dccd8ba1447fa70422a3b330e708bb4f08108d8ae51209ddf O/POTCAR              
   COPYR  = (c) Copyright 08Apr2002 Georg Kresse                                                    
   COPYR  = This file is part of the software VASP. Any use, copying, and all other rights are regul
   COPYR  = If you do not have a valid VASP license, you may not use, copy or distribute this file. 
   VRHFIN =O: s2p4                                                                                  
   LEXCH  = PE                                                                                      
   EATOM  =   432.3788 eV,   31.7789 Ry                                                             
                                                                                                    
   TITEL  = PAW_PBE O 08Apr2002                                                                     
   LULTRA =        F    use ultrasoft PP ?                                                          
   IUNSCR =        1    unscreen: 0-lin 1-nonlin 2-no                                               
   RPACOR =    1.200    partial core radius                                                         
   POMASS =   16.000; ZVAL   =    6.000    mass and valenz                                          
   RCORE  =    1.520    outmost cutoff radius                                                       
   RWIGS  =    1.550; RWIGS  =    0.820    wigner-seitz radius (au A)                               
   ENMAX  =  400.000; ENMIN  =  300.000 eV                                                          
   ICORE  =        2    local potential                                                             
   LCOR   =        T    correct aug charges                                                         
   LPAW   =        T    paw PP                                                                      
   EAUG   =  605.392                                                                                
   DEXC   =    0.000                                                                                
   RMAX   =    1.553    core radius for proj-oper                                                   
   RAUG   =    1.300    factor for augmentation sphere                                              
   RDEP   =    1.550    radius for radial grids                                                     
   RDEPT  =    1.329    core radius for aug-charge                                                  
                                                                                                    
   Atomic configuration                                                                             
    4 entries                                                                                       
     n  l   j            E        occ.                                                              
     1  0  0.50      -514.6923   2.0000                                                             
     2  0  0.50       -23.9615   2.0000                                                             
     2  1  0.50        -9.0305   4.0000                                                             
     3  2  1.50        -9.5241   0.0000                                                             
   Description                                                                                      
     l       E           TYP  RCUT    TYP  RCUT                                                     
     0    -23.9615318     23  1.200                                                                 
     0     -9.5240782     23  1.200                                                                 
     1     -9.0304911     23  1.520                                                                 
     1      8.1634956     23  1.520                                                                 
     2     -9.5240782      7  1.500                                                                 
  local pseudopotential read in
  partial core-charges read in
  partial kinetic energy density read in
  kinetic energy density of atom read in
  atomic valenz-charges read in
  non local Contribution for L=            0  read in
    real space projection operators read in
  non local Contribution for L=            0  read in
    real space projection operators read in
  non local Contribution for L=            1  read in
    real space projection operators read in
  non local Contribution for L=            1  read in
    real space projection operators read in
    PAW grid and wavefunctions read in
 
   number of l-projection  operators is LMAX  =            4
   number of lm-projection operators is LMMAX =            8
 
  PAW_PBE Pd_pv 28Jan2005               :
 energy of atom  1       EATOM=-2621.5550
 kinetic energy error for atom=    0.0088 (will be added to EATOM!!)
  PAW_PBE O 08Apr2002                   :
 energy of atom  2       EATOM= -432.3788
 kinetic energy error for atom=    0.0208 (will be added to EATOM!!)
 
 
 POSCAR: Pd O
  positions in cartesian coordinates
  No initial velocities read in
 IVDW         = 12
 VDW_S6       =    1.0000
 VDW_S8       =    0.7875
 VDW_A1       =    0.4289
 VDW_A2       =    4.4407
 VDW_RADIUS   =   50.2022 A
 VDW_CNRADIUS =   21.1671 A


 exchange-correlation table for PE
   RHO(1)=    0.500       N(1)  =     2000
   RHO(2)=  100.500       N(2)  =     4000
 


--------------------------------------------------------------------------------------------------------


 ion  position               nearest neighbor table
   1  0.500  0.000  0.500-   3 2.03   4 2.03   3 2.03   4 2.03
   2  0.000  0.500  0.000-   3 2.03   4 2.03   3 2.03   4 2.03
   3  0.000  0.000  0.750-   1 2.03   2 2.03   2 2.03   1 2.03
   4  0.000  0.000  0.250-   1 2.03   2 2.03   2 2.03   1 2.03
 
  LATTYP: Found a simple tetragonal cell.
 ALAT       =     3.0536041100
 C/A-ratio  =     1.7589892457
  
  Lattice vectors:
  
 A1 = (   3.0536041100,   0.0000000000,   0.0000000000)
 A2 = (   0.0000000000,   3.0536041100,   0.0000000000)
 A3 = (   0.0000000000,   0.0000000000,   5.3712567900)


Analysis of symmetry for initial positions (statically):
=====================================================================
 Subroutine PRICEL returns:
 Original cell was already a primitive cell.
 

 Routine SETGRP: Setting up the symmetry group for a 
 simple tetragonal supercell.


 Subroutine GETGRP returns: Found 16 space group operations
 (whereof  8 operations were pure point group operations)
 out of a pool of 16 trial point group operations.


The static configuration has the point symmetry D_2h.
 The point group associated with its full space group is D_4h.


Analysis of symmetry for dynamics (positions and initial velocities):
=====================================================================
 Subroutine PRICEL returns:
 Original cell was already a primitive cell.
 

 Routine SETGRP: Setting up the symmetry group for a 
 simple tetragonal supercell.


 Subroutine GETGRP returns: Found 16 space group operations
 (whereof  8 operations were pure point group operations)
 out of a pool of 16 trial point group operations.


The dynamic configuration has the point symmetry D_2h.
 The point group associated with its full space group is D_4h.


Analysis of structural, dynamic, and magnetic symmetry:
=====================================================================
 Subroutine PRICEL returns:
 Original cell was already a primitive cell.
 

 Routine SETGRP: Setting up the symmetry group for a 
 simple tetragonal supercell.


 Subroutine GETGRP returns: Found 16 space group operations
 (whereof  8 operations were pure point group operations)
 out of a pool of 16 trial point group operations.


The overall configuration has the point symmetry D_2h.
 The point group associated with its full space group is D_4h.


 Subroutine INISYM returns: Found 16 space group operations
 (whereof  8 operations are pure point group operations),
 and found     1 'primitive' translations


----------------------------------------------------------------------------------------

                                     Primitive cell                                     

  volume of cell :      50.0843

  direct lattice vectors                    reciprocal lattice vectors
     3.053604110  0.000000000  0.000000000     0.327481875 -0.000000000  0.000000000
     0.000000000  3.053604110  0.000000000     0.000000000  0.327481875  0.000000000
     0.000000000  0.000000000  5.371256790    -0.000000000 -0.000000000  0.186176167

  length of vectors
     3.053604110  3.053604110  5.371256790     0.327481875  0.327481875  0.186176167

  position of ions in fractional coordinates (direct lattice)
     0.500000000  0.000000000  0.500000000
     0.000000000  0.500000000  0.000000000
     0.000000000  0.000000000  0.750000000
     0.000000000  0.000000000  0.250000000

  ion indices of the primitive-cell ions
   primitive index   ion index
                 1           1
                 2           2
                 3           3
                 4           4

----------------------------------------------------------------------------------------

 
 
 KPOINTS: Automatic mesh                          

Automatic generation of k-mesh.
 Grid dimensions read from file:
 generate k-points for:    4    4    3

 Generating k-lattice:

  Cartesian coordinates                     Fractional coordinates (reciprocal lattice)
     0.081870469 -0.000000000  0.000000000     0.250000000  0.000000000  0.000000000
     0.000000000  0.081870469  0.000000000     0.000000000  0.250000000  0.000000000
    -0.000000000 -0.000000000  0.062058722     0.000000000  0.000000000  0.333333333

  Length of vectors
     0.081870469  0.081870469  0.062058722

  Shift w.r.t. Gamma in fractional coordinates (k-lattice)
     0.000000000  0.000000000  0.000000000

 
 Subroutine IBZKPT returns following result:
 ===========================================
 
 Found     12 irreducible k-points:
 
 Following reciprocal coordinates:
            Coordinates               Weight
  0.000000  0.000000  0.000000      1.000000
  0.250000  0.000000  0.000000      4.000000
  0.500000  0.000000  0.000000      2.000000
  0.250000  0.250000  0.000000      4.000000
  0.500000  0.250000  0.000000      4.000000
  0.500000  0.500000  0.000000      1.000000
  0.000000  0.000000  0.333333      2.000000
  0.250000  0.000000  0.333333      8.000000
  0.500000  0.000000  0.333333      4.000000
  0.250000  0.250000  0.333333      8.000000
  0.500000  0.250000  0.333333      8.000000
  0.500000  0.500000  0.333333      2.000000
 
 Following cartesian coordinates:
            Coordinates               Weight
  0.000000  0.000000  0.000000      1.000000
  0.081870  0.000000  0.000000      4.000000
  0.163741  0.000000  0.000000      2.000000
  0.081870  0.081870  0.000000      4.000000
  0.163741  0.081870  0.000000      4.000000
  0.163741  0.163741  0.000000      1.000000
  0.000000  0.000000  0.062059      2.000000
  0.081870  0.000000  0.062059      8.000000
  0.163741  0.000000  0.062059      4.000000
  0.081870  0.081870  0.062059      8.000000
  0.163741  0.081870  0.062059      8.000000
  0.163741  0.163741  0.062059      2.000000
 


--------------------------------------------------------------------------------------------------------




 Dimension of arrays:
   k-points           NKPTS =     12   k-points in BZ     NKDIM =     12   number of bands    NBANDS=     28
   number of dos      NEDOS =    301   number of ions     NIONS =      4
   non local maximal  LDIM  =      6   non local SUM 2l+1 LMDIM =     18
   total plane-waves  NPLWV =  23040
   max r-space proj   IRMAX =      1   max aug-charges    IRDMAX= 147517
   dimension x,y,z NGX =    24 NGY =   24 NGZ =   40
   dimension x,y,z NGXF=    48 NGYF=   48 NGZF=   80
   support grid    NGXF=    96 NGYF=   96 NGZF=  160
   ions per type =               2   2
   NGX,Y,Z   is equivalent  to a cutoff of  13.07, 13.07, 12.38 a.u.
   NGXF,Y,Z  is equivalent  to a cutoff of  26.13, 26.13, 24.76 a.u.

 SYSTEM =  pddmc                                   
 POSCAR =  Pd O                                    

 Startparameter for this run:
   NWRITE =      2    write-flag & timer
   PREC   = accura    normal or accurate (medium, high low for compatibility)
   ISTART =      0    job   : 0-new  1-cont  2-samecut
   ICHARG =      2    charge: 1-file 2-atom 10-const
   ISPIN  =      2    spin polarized calculation?
   LNONCOLLINEAR =      F non collinear calculations
   LSORBIT =      F    spin-orbit coupling
   INIWAV =      1    electr: 0-lowe 1-rand  2-diag
   LASPH  =      T    aspherical Exc in radial PAW
 Electronic Relaxation 1
   ENCUT  =  520.0 eV  38.22 Ry    6.18 a.u.   5.68  5.68  9.99*2*pi/ulx,y,z
   ENINI  =  520.0     initial cutoff
   ENAUG  =  605.4 eV  augmentation charge cutoff
   NELM   =    200;   NELMIN=  5; NELMDL= -5     # of ELM steps 
   EDIFF  = 0.1E-05   stopping-criterion for ELM
   LREAL  =      F    real-space projection
   NLSPLINE    = F    spline interpolate recip. space projectors
   LCOMPAT=      F    compatible to vasp.4.4
   GGA_COMPAT  = T    GGA compatible to vasp.4.4-vasp.4.6
   LMAXPAW     = -100 max onsite density
   LMAXMIX     =    2 max onsite mixed and CHGCAR
   VOSKOWN=      0    Vosko Wilk Nusair interpolation
   ROPT   =    0.00000   0.00000
 Ionic relaxation
   EDIFFG = -.1E-01   stopping-criterion for IOM
   NSW    =      0    number of steps for IOM
   NBLOCK =      1;   KBLOCK =      1    inner block; outer block 
   IBRION =     -1    ionic relax: 0-MD 1-quasi-New 2-CG
   NFREE  =      0    steps in history (QN), initial steepest desc. (CG)
   ISIF   =      0    stress and relaxation
   IWAVPR =     10    prediction:  0-non 1-charg 2-wave 3-comb
   ISYM   =      2    0-nonsym 1-usesym 2-fastsym
   LCORR  =      T    Harris-Foulkes like correction to forces

   POTIM  = 0.5000    time-step for ionic-motion
   TEIN   =    0.0    initial temperature
   TEBEG  =    0.0;   TEEND  =   0.0 temperature during run
   SMASS  =  -3.00    Nose mass-parameter (am)
   estimated Nose-frequenzy (Omega)   =  0.10E-29 period in steps = 0.13E+47 mass=  -0.213E-27a.u.
   SCALEE = 1.0000    scale energy and forces
   NPACO  =    256;   APACO  = 10.0  distance and # of slots for P.C.
   PSTRESS=    0.0 pullay stress

  Mass of Ions in am
   POMASS = 106.42 16.00
  Ionic Valenz
   ZVAL   =  16.00  6.00
  Atomic Wigner-Seitz radii
   RWIGS  =  -1.00 -1.00
  virtual crystal weights 
   VCA    =   1.00  1.00
   NELECT =      44.0000    total number of electrons
   NUPDOWN=      -1.0000    fix difference up-down

 DOS related values:
   EMIN   =  10.00;   EMAX   =-10.00  energy-range for DOS
   EFERMI =   0.00;   METHOD = LEGACY      
   ISMEAR =     0;   SIGMA  =   0.05  broadening in eV -4-tet -1-fermi 0-gaus

 Electronic relaxation 2 (details)
   IALGO  =     38    algorithm
   LDIAG  =      T    sub-space diagonalisation (order eigenvalues)
   LSUBROT=      F    optimize rotation matrix (better conditioning)
   TURBO    =      0    0=normal 1=particle mesh
   IRESTART =      0    0=no restart 2=restart with 2 vectors
   NREBOOT  =      0    no. of reboots
   NMIN     =      0    reboot dimension
   EREF     =   0.00    reference energy to select bands
   IMIX   =      4    mixing-type and parameters
     AMIX     =   0.40;   BMIX     =  1.00
     AMIX_MAG =   1.60;   BMIX_MAG =  1.00
     AMIN     =   0.10
     WC   =   100.;   INIMIX=   1;  MIXPRE=   1;  MAXMIX= -45

 Intra band minimization:
   WEIMIN = 0.0000     energy-eigenvalue tresh-hold
   EBREAK =  0.89E-08  absolut break condition
   DEPER  =   0.30     relativ break condition  

   TIME   =   0.40     timestep for ELM

  volume/ion in A,a.u.               =      12.52        84.50
  Fermi-wavevector in a.u.,A,eV,Ry     =   1.567925  2.962948 33.448407  2.458389
  Thomas-Fermi vector in A             =   2.670032
 
 Write flags
   LWAVE        =      F    write WAVECAR
   LDOWNSAMPLE  =      F    k-point downsampling of WAVECAR
   LCHARG       =      F    write CHGCAR
   LVTOT        =      F    write LOCPOT, total local potential
   LVHAR        =      F    write LOCPOT, Hartree potential only
   WRT_POTENTIAL= false  ! write potential to hdf5 file
   LELF         =      F    write electronic localiz. function (ELF)
   LORBIT       =     11    0 simple, 1 ext, 2 COOP (PROOUT), +10 PAW based schemes


 Dipole corrections
   LMONO      =      F    monopole corrections only (constant potential shift)
   LDIPOL     =      F    correct potential (dipole corrections)
   IDIPOL     =      0    1-x, 2-y, 3-z, 4-all directions 
   EPSILON    =  1.0000000 bulk dielectric constant
   LVACPOTAV  =      F  vacuum potentials using an averaging scheme for the charge density
   VACPOTFLAT =  0.1000000 required flatness to determine vacuum potential
 Exchange correlation treatment:
   GGA     = PE    functional components
   XC_C    = 1    coefficients multiplying the functional components
   LIBXC   =     F    Libxc                    
   VOSKOWN =     0    Vosko Wilk Nusair interpolation
   LHFCALC =     F    Hartree Fock is set to
   LHFONE  =     F    Hartree Fock one center treatment
   AEXX    =    0.0000 exact exchange contribution

 Parameters of functionals:
   PE:
     No parameter
 
 Van der Waals corrections
   IVDW    =    12    specifies the selected vdW correction

 Linear response parameters
   LEPSILON=     F    determine dielectric tensor
   LRPA    =     F    only Hartree local field effects (RPA)
   LNABLA  =     F    use nabla operator in PAW spheres
   LVEL    =     F    velocity operator in full k-point grid
   CSHIFT  =0.1000    complex shift for real part using Kramers Kronig
   OMEGAMAX=  -1.0    maximum frequency
   DEG_THRESHOLD= 0.2000000E-02 threshold for treating states as degnerate
   RTIME   =   -0.100 relaxation time in fs
  (WPLASMAI=    0.000 imaginary part of plasma frequency in eV, 0.658/RTIME)
   DFIELD  = 0.0000000 0.0000000 0.0000000 field for delta impulse in time
 
  Optional k-point grid parameters
   LKPOINTS_OPT  =     F    use optional k-point grid
   KPOINTS_OPT_MODE=     1    mode for optional k-point grid
 
 Orbital magnetization related:
   ORBITALMAG=     F  switch on orbital magnetization
   LCHIMAG   =     F  perturbation theory with respect to B field
   DQ        =  0.001000  dq finite difference perturbation B field
   LLRAUG    =     F  two centre corrections for induced B field
   LBONE     =     F  B-component reconstruction in AE one-centre
   LVGVCALC  =     T  calculate vGv susceptibility
   LVGVAPPL  =     F  apply vGv susceptibility instead of pGv for G=0

 Random number generation:
   RANDOM_GENERATOR = DEFAULT
   PCG_SEED         = not used


--------------------------------------------------------------------------------------------------------


 Static calculation
 charge density and potential will be updated during run
 spin polarized calculation
 Variant of blocked Davidson
 Davidson routine will perform the subspace rotation
 perform sub-space diagonalisation
    after iterative eigenvector-optimisation
 modified Broyden-mixing scheme, WC =      100.0
 initial mixing is a Kerker type mixing with AMIX =  0.4000 and BMIX =      1.0000
 Hartree-type preconditioning will be used
 using additional bands             6
 reciprocal scheme for non local part
 use partial core corrections
 calculate Harris-corrections to forces 
   (improved forces if not selfconsistent)
 use gradient corrections 
 use of overlap-Matrix (Vanderbilt PP)
 Gauss-broadening in eV      SIGMA  =   0.05


--------------------------------------------------------------------------------------------------------


  energy-cutoff  :      520.00
  volume of cell :       50.08
      direct lattice vectors                 reciprocal lattice vectors
     3.053604110  0.000000000  0.000000000     0.327481875 -0.000000000  0.000000000
     0.000000000  3.053604110  0.000000000     0.000000000  0.327481875  0.000000000
     0.000000000  0.000000000  5.371256790    -0.000000000 -0.000000000  0.186176167

  length of vectors
     3.053604110  3.053604110  5.371256790     0.327481875  0.327481875  0.186176167


 
 k-points in units of 2pi/SCALE and weight: Automatic mesh                          
   0.00000000  0.00000000  0.00000000       0.021
   0.08187047  0.00000000  0.00000000       0.083
   0.16374094  0.00000000  0.00000000       0.042
   0.08187047  0.08187047  0.00000000       0.083
   0.16374094  0.08187047  0.00000000       0.083
   0.16374094  0.16374094  0.00000000       0.021
   0.00000000  0.00000000  0.06205872       0.042
   0.08187047  0.00000000  0.06205872       0.167
   0.16374094  0.00000000  0.06205872       0.083
   0.08187047  0.08187047  0.06205872       0.167
   0.16374094  0.08187047  0.06205872       0.167
   0.16374094  0.16374094  0.06205872       0.042
 
 k-points in reciprocal lattice and weights: Automatic mesh                          
   0.00000000  0.00000000  0.00000000       0.021
   0.25000000  0.00000000  0.00000000       0.083
   0.50000000  0.00000000  0.00000000       0.042
   0.25000000  0.25000000  0.00000000       0.083
   0.50000000  0.25000000  0.00000000       0.083
   0.50000000  0.50000000  0.00000000       0.021
   0.00000000  0.00000000  0.33333333       0.042
   0.25000000  0.00000000  0.33333333       0.167
   0.50000000  0.00000000  0.33333333       0.083
   0.25000000  0.25000000  0.33333333       0.167
   0.50000000  0.25000000  0.33333333       0.167
   0.50000000  0.50000000  0.33333333       0.042
 
 position of ions in fractional coordinates (direct lattice) 
   0.50000000  0.00000000  0.50000000
   0.00000000  0.50000000  0.00000000
   0.00000000  0.00000000  0.75000000
   0.00000000  0.00000000  0.25000000
 
 position of ions in cartesian coordinates  (Angst):
   1.52680206  0.00000000  2.68562840
   0.00000000  1.52680206  0.00000000
   0.00000000  0.00000000  4.02844259
   0.00000000  0.00000000  1.34281420
 


--------------------------------------------------------------------------------------------------------


 k-point     1 :   0.0000 0.0000 0.0000  plane waves:    1351
 k-point     2 :   0.2500 0.0000 0.0000  plane waves:    1349
 k-point     3 :   0.5000 0.0000 0.0000  plane waves:    1348
 k-point     4 :   0.2500 0.2500 0.0000  plane waves:    1344
 k-point     5 :   0.5000 0.2500 0.0000  plane waves:    1350
 k-point     6 :   0.5000 0.5000 0.0000  plane waves:    1320
 k-point     7 :   0.0000 0.0000 0.3333  plane waves:    1356
 k-point     8 :   0.2500 0.0000 0.3333  plane waves:    1350
 k-point     9 :   0.5000 0.0000 0.3333  plane waves:    1360
 k-point    10 :   0.2500 0.2500 0.3333  plane waves:    1342
 k-point    11 :   0.5000 0.2500 0.3333  plane waves:    1356
 k-point    12 :   0.5000 0.5000 0.3333  plane waves:    1320

 maximum and minimum number of plane-waves per node :      1360     1320

 maximum number of plane-waves:      1360
 maximum index in each direction: 
   IXMAX=    5   IYMAX=    5   IZMAX=    9
   IXMIN=   -6   IYMIN=   -6   IZMIN=  -10


 serial   3D FFT for wavefunctions
 parallel 3D FFT for charge:
    minimum data exchange during FFTs selected (reduces bandwidth)


 total amount of memory used by VASP MPI-rank0    51223. kBytes
=======================================================================

   base      :      30000. kBytes
   nonl-proj :       4787. kBytes
   fftplans  :       6896. kBytes
   grid      :       5621. kBytes
   one-center:        124. kBytes
   wavefun   :       3795. kBytes
 
     INWAV:  cpu time      0.0000: real time      0.0001
 Broyden mixing: mesh for mixing (old mesh)
   NGX = 11   NGY = 11   NGZ = 19
  (NGX  = 48   NGY  = 48   NGZ  = 80)
  gives a total of   2299 points

 initial charge density was supplied:
 charge density of overlapping atoms calculated
 number of electron      44.0000000 magnetization       4.0000000
 keeping initial charge density in first step


--------------------------------------------------------------------------------------------------------


 Maximum index for augmentation-charges         35753 (set IRDMAX)


--------------------------------------------------------------------------------------------------------


 First call to EWALD:  gamma=   0.481
 Maximum number of real-space cells 3x 3x 2
 Maximum number of reciprocal cells 2x 2x 4

    FEWALD:  cpu time      0.0004: real time      0.0004


--------------------------------------- Ionic step        1  -------------------------------------------




--------------------------------------- Iteration      1(   1)  ---------------------------------------


    POTLOK:  cpu time      0.0370: real time      0.0371
    SETDIJ:  cpu time      0.4137: real time      0.5649
     EDDAV:  cpu time      0.5290: real time      0.5938
       DOS:  cpu time      0.0002: real time      0.0002
    --------------------------------------------
      LOOP:  cpu time      0.9799: real time      1.1960

 eigenvalue-minimisations  :  1352
 total energy-change (2. order) : 0.4670181E+03  (-0.2770111E+04)
 number of electron      44.0000000 magnetization       4.0000000
 augmentation part       44.0000000 magnetization       4.0000000

 Free energy of the ion-electron system (eV)
  ---------------------------------------------------
  alpha Z        PSCENC =       264.60919239
  Ewald energy   TEWEN  =     -4637.17866551
  -Hartree energ DENC   =     -1556.19354633
  -exchange      EXHF   =         0.00000000
  -V(xc)+E(xc)   XCENC  =       221.00441200
  PAW double counting   =      5208.65407777    -5154.59282805
  entropy T*S    EENTRO =        -0.00138091
  eigenvalues    EBANDS =        12.90845934
  atomic energy  EATOM  =      6107.80840369
  Solvation  Ediel_sol  =         0.00000000
  ---------------------------------------------------
  free energy    TOTEN  =       467.01812440 eV

  energy without entropy =      467.01950531  energy(sigma->0) =      467.01881485


--------------------------------------------------------------------------------------------------------




--------------------------------------- Iteration      1(   2)  ---------------------------------------


     EDDAV:  cpu time      0.5673: real time      0.6741
       DOS:  cpu time      0.0002: real time      0.0002
    --------------------------------------------
      LOOP:  cpu time      0.5675: real time      0.6743

 eigenvalue-minimisations  :  1480
 total energy-change (2. order) :-0.4680450E+03  (-0.4530475E+03)
 number of electron      44.0000000 magnetization       4.0000000
 augmentation part       44.0000000 magnetization       4.0000000

 Free energy of the ion-electron system (eV)
  ---------------------------------------------------
  alpha Z        PSCENC =       264.60919239
  Ewald energy   TEWEN  =     -4637.17866551
  -Hartree energ DENC   =     -1556.19354633
  -exchange      EXHF   =         0.00000000
  -V(xc)+E(xc)   XCENC  =       221.00441200
  PAW double counting   =      5208.65407777    -5154.59282805
  entropy T*S    EENTRO =        -0.00590270
  eigenvalues    EBANDS =      -455.13201309
  atomic energy  EATOM  =      6107.80840369
  Solvation  Ediel_sol  =         0.00000000
  ---------------------------------------------------
  free energy    TOTEN  =        -1.02686982 eV

  energy without entropy =       -1.02096712  energy(sigma->0) =       -1.02391847


--------------------------------------------------------------------------------------------------------




--------------------------------------- Iteration      1(   3)  ---------------------------------------


     EDDAV:  cpu time      0.5150: real time      0.6126
       DOS:  cpu time      0.0002: real time      0.0002
    --------------------------------------------
      LOOP:  cpu time      0.5152: real time      0.6128

 eigenvalue-minimisations  :  1472
 total energy-change (2. order) :-0.2312307E+02  (-0.2285823E+02)
 number of electron      44.0000000 magnetization       4.0000000
 augmentation part       44.0000000 magnetization       4.0000000

 Free energy of the ion-electron system (eV)
  ---------------------------------------------------
  alpha Z        PSCENC =       264.60919239
  Ewald energy   TEWEN  =     -4637.17866551
  -Hartree energ DENC   =     -1556.19354633
  -exchange      EXHF   =         0.00000000
  -V(xc)+E(xc)   XCENC  =       221.00441200
  PAW double counting   =      5208.65407777    -5154.59282805
  entropy T*S    EENTRO =        -0.00112498
  eigenvalues    EBANDS =      -478.25986073
  atomic energy  EATOM  =      6107.80840369
  Solvation  Ediel_sol  =         0.00000000
  ---------------------------------------------------
  free energy    TOTEN  =       -24.14993974 eV

  energy without entropy =      -24.14881476  energy(sigma->0) =      -24.14937725


--------------------------------------------------------------------------------------------------------




--------------------------------------- Iteration      1(   4)  ---------------------------------------


     EDDAV:  cpu time      0.7738: real time      1.0389
       DOS:  cpu time      0.0002: real time      0.0002
    --------------------------------------------
      LOOP:  cpu time      0.7740: real time      1.0391

 eigenvalue-minimisations  :  1444
 total energy-change (2. order) :-0.2649333E+00  (-0.2648394E+00)
 number of electron      44.0000000 magnetization       4.0000000
 augmentation part       44.0000000 magnetization       4.0000000

 Free energy of the ion-electron system (eV)
  ---------------------------------------------------
  alpha Z        PSCENC =       264.60919239
  Ewald energy   TEWEN  =     -4637.17866551
  -Hartree energ DENC   =     -1556.19354633
  -exchange      EXHF   =         0.00000000
  -V(xc)+E(xc)   XCENC  =       221.00441200
  PAW double counting   =      5208.65407777    -5154.59282805
  entropy T*S    EENTRO =        -0.00119015
  eigenvalues    EBANDS =      -478.52472887
  atomic energy  EATOM  =      6107.80840369
  Solvation  Ediel_sol  =         0.00000000
  ---------------------------------------------------
  free energy    TOTEN  =       -24.41487306 eV

  energy without entropy =      -24.41368291  energy(sigma->0) =      -24.41427798


--------------------------------------------------------------------------------------------------------




--------------------------------------- Iteration      1(   5)  ---------------------------------------


     EDDAV:  cpu time      0.4919: real time      0.5992
       DOS:  cpu time      0.0002: real time      0.0002
    CHARGE:  cpu time      0.0785: real time      0.0785
    MIXING:  cpu time      0.0010: real time      0.0010
    --------------------------------------------
      LOOP:  cpu time      0.5715: real time      0.6789

 eigenvalue-minimisations  :  1492
 total energy-change (2. order) :-0.2754700E-02  (-0.2754539E-02)
 number of electron      44.0000001 magnetization       1.0352106
 augmentation part       16.1969072 magnetization       0.7031968

 Broyden mixing:
  rms(total) = 0.17052E+01    rms(broyden)= 0.17047E+01
  rms(prec ) = 0.26500E+01
  weight for this iteration     100.00

 Free energy of the ion-electron system (eV)
  ---------------------------------------------------
  alpha Z        PSCENC =       264.60919239
  Ewald energy   TEWEN  =     -4637.17866551
  -Hartree energ DENC   =     -1556.19354633
  -exchange      EXHF   =         0.00000000
  -V(xc)+E(xc)   XCENC  =       221.00441200
  PAW double counting   =      5208.65407777    -5154.59282805
  entropy T*S    EENTRO =        -0.00118901
  eigenvalues    EBANDS =      -478.52748472
  atomic energy  EATOM  =      6107.80840369
  Solvation  Ediel_sol  =         0.00000000
  ---------------------------------------------------
  free energy    TOTEN  =       -24.41762776 eV

  energy without entropy =      -24.41643875  energy(sigma->0) =      -24.41703325


--------------------------------------------------------------------------------------------------------




--------------------------------------- Iteration      1(   6)  ---------------------------------------


    POTLOK:  cpu time      0.0339: real time      0.0340
    SETDIJ:  cpu time      0.4060: real time      0.4061
     EDDAV:  cpu time      0.4728: real time      0.4729
       DOS:  cpu time      0.0002: real time      0.0002
    CHARGE:  cpu time      0.0785: real time      0.0785
    MIXING:  cpu time      0.0010: real time      0.0010
    --------------------------------------------
      LOOP:  cpu time      0.9925: real time      0.9927

 eigenvalue-minimisations  :  1412
 total energy-change (2. order) : 0.1655356E+01  (-0.1572040E+01)
 number of electron      44.0000001 magnetization       0.4045174
 augmentation part       16.8355204 magnetization       0.3391015

 Broyden mixing:
  rms(total) = 0.74446E+00    rms(broyden)= 0.74386E+00
  rms(prec ) = 0.12547E+01
  weight for this iteration     100.00

 eigenvalues of (default mixing * dielectric matrix)
  average eigenvalue GAMMA=   0.8316
  0.8316

 Free energy of the ion-electron system (eV)
  ---------------------------------------------------
  alpha Z        PSCENC =       264.60919239
  Ewald energy   TEWEN  =     -4637.17866551
  -Hartree energ DENC   =     -1526.21811914
  -exchange      EXHF   =         0.00000000
  -V(xc)+E(xc)   XCENC  =       220.36035056
  PAW double counting   =      5342.06991265    -5293.88782593
  entropy T*S    EENTRO =        -0.00171207
  eigenvalues    EBANDS =      -500.32380825
  atomic energy  EATOM  =      6107.80840369
  Solvation  Ediel_sol  =         0.00000000
  ---------------------------------------------------
  free energy    TOTEN  =       -22.76227160 eV

  energy without entropy =      -22.76055954  energy(sigma->0) =      -22.76141557


--------------------------------------------------------------------------------------------------------




--------------------------------------- Iteration      1(   7)  ---------------------------------------


    POTLOK:  cpu time      0.0337: real time      0.0337
    SETDIJ:  cpu time      0.4061: real time      0.4061
     EDDAV:  cpu time      0.4741: real time      0.4741
       DOS:  cpu time      0.0002: real time      0.0002
    CHARGE:  cpu time      0.0768: real time      0.0768
    MIXING:  cpu time      0.0010: real time      0.0010
    --------------------------------------------
      LOOP:  cpu time      0.9918: real time      0.9919

 eigenvalue-minimisations  :  1432
 total energy-change (2. order) : 0.5723361E+00  (-0.2502534E+00)
 number of electron      44.0000001 magnetization      -0.0707430
 augmentation part       16.5247595 magnetization      -0.1171526

 Broyden mixing:
  rms(total) = 0.38032E+00    rms(broyden)= 0.38029E+00
  rms(prec ) = 0.45914E+00
  weight for this iteration     100.00

 eigenvalues of (default mixing * dielectric matrix)
  average eigenvalue GAMMA=   0.9242
  1.1538  0.6946

 Free energy of the ion-electron system (eV)
  ---------------------------------------------------
  alpha Z        PSCENC =       264.60919239
  Ewald energy   TEWEN  =     -4637.17866551
  -Hartree energ DENC   =     -1539.25847949
  -exchange      EXHF   =         0.00000000
  -V(xc)+E(xc)   XCENC  =       220.55627323
  PAW double counting   =      5459.78535001    -5411.02910205
  entropy T*S    EENTRO =        -0.00184712
  eigenvalues    EBANDS =      -487.48106065
  atomic energy  EATOM  =      6107.80840369
  Solvation  Ediel_sol  =         0.00000000
  ---------------------------------------------------
  free energy    TOTEN  =       -22.18993549 eV

  energy without entropy =      -22.18808837  energy(sigma->0) =      -22.18901193


--------------------------------------------------------------------------------------------------------




--------------------------------------- Iteration      1(   8)  ---------------------------------------


    POTLOK:  cpu time      0.0333: real time      0.0334
    SETDIJ:  cpu time      0.4062: real time      0.4062
     EDDAV:  cpu time      0.4720: real time      0.4721
       DOS:  cpu time      0.0002: real time      0.0002
    CHARGE:  cpu time      0.0758: real time      0.0758
    MIXING:  cpu time      0.0010: real time      0.0010
    --------------------------------------------
      LOOP:  cpu time      0.9884: real time      0.9886

 eigenvalue-minimisations  :  1428
 total energy-change (2. order) :-0.1698941E-01  (-0.4283287E-01)
 number of electron      44.0000001 magnetization      -0.0983270
 augmentation part       16.5679597 magnetization      -0.0883653

 Broyden mixing:
  rms(total) = 0.14661E+00    rms(broyden)= 0.14657E+00
  rms(prec ) = 0.19037E+00
  weight for this iteration     100.00

 eigenvalues of (default mixing * dielectric matrix)
  average eigenvalue GAMMA=   1.1450
  0.7326  0.9732  1.7292

 Free energy of the ion-electron system (eV)
  ---------------------------------------------------
  alpha Z        PSCENC =       264.60919239
  Ewald energy   TEWEN  =     -4637.17866551
  -Hartree energ DENC   =     -1535.01150563
  -exchange      EXHF   =         0.00000000
  -V(xc)+E(xc)   XCENC  =       220.36941690
  PAW double counting   =      5599.73132846    -5552.14214129
  entropy T*S    EENTRO =        -0.00513654
  eigenvalues    EBANDS =      -490.38781739
  atomic energy  EATOM  =      6107.80840369
  Solvation  Ediel_sol  =         0.00000000
  ---------------------------------------------------
  free energy    TOTEN  =       -22.20692490 eV

  energy without entropy =      -22.20178837  energy(sigma->0) =      -22.20435663


--------------------------------------------------------------------------------------------------------




--------------------------------------- Iteration      1(   9)  ---------------------------------------


    POTLOK:  cpu time      0.0341: real time      0.0341
    SETDIJ:  cpu time      0.4055: real time      0.4056
     EDDAV:  cpu time      0.4844: real time      0.4844
       DOS:  cpu time      0.0002: real time      0.0002
    CHARGE:  cpu time      0.0770: real time      0.0770
    MIXING:  cpu time      0.0011: real time      0.0011
    --------------------------------------------
      LOOP:  cpu time      1.0022: real time      1.0023

 eigenvalue-minimisations  :  1484
 total energy-change (2. order) : 0.5067823E-02  (-0.2508707E-02)
 number of electron      44.0000001 magnetization      -0.0840609
 augmentation part       16.5725635 magnetization      -0.0466921

 Broyden mixing:
  rms(total) = 0.46773E-01    rms(broyden)= 0.46751E-01
  rms(prec ) = 0.53730E-01
  weight for this iteration     100.00

 eigenvalues of (default mixing * dielectric matrix)
  average eigenvalue GAMMA=   1.1378
  2.1370  0.8508  0.8508  0.7128

 Free energy of the ion-electron system (eV)
  ---------------------------------------------------
  alpha Z        PSCENC =       264.60919239
  Ewald energy   TEWEN  =     -4637.17866551
  -Hartree energ DENC   =     -1536.13029249
  -exchange      EXHF   =         0.00000000
  -V(xc)+E(xc)   XCENC  =       220.47267542
  PAW double counting   =      5674.94921682    -5627.81918921
  entropy T*S    EENTRO =        -0.00564049
  eigenvalues    EBANDS =      -488.90755771
  atomic energy  EATOM  =      6107.80840369
  Solvation  Ediel_sol  =         0.00000000
  ---------------------------------------------------
  free energy    TOTEN  =       -22.20185708 eV

  energy without entropy =      -22.19621659  energy(sigma->0) =      -22.19903683


--------------------------------------------------------------------------------------------------------




--------------------------------------- Iteration      1(  10)  ---------------------------------------


    POTLOK:  cpu time      0.0334: real time      0.0335
    SETDIJ:  cpu time      0.4061: real time      0.4061
     EDDAV:  cpu time      0.4724: real time      0.4725
       DOS:  cpu time      0.0002: real time      0.0002
    CHARGE:  cpu time      0.0804: real time      0.0804
    MIXING:  cpu time      0.0010: real time      0.0010
    --------------------------------------------
      LOOP:  cpu time      0.9935: real time      0.9937

 eigenvalue-minimisations  :  1424
 total energy-change (2. order) :-0.1498970E-02  (-0.2749689E-03)
 number of electron      44.0000001 magnetization      -0.0694042
 augmentation part       16.5671631 magnetization      -0.0350100

 Broyden mixing:
  rms(total) = 0.19881E-01    rms(broyden)= 0.19877E-01
  rms(prec ) = 0.23008E-01
  weight for this iteration     100.00

 eigenvalues of (default mixing * dielectric matrix)
  average eigenvalue GAMMA=   1.1932
  2.4634  1.0390  1.0390  0.7123  0.7123

 Free energy of the ion-electron system (eV)
  ---------------------------------------------------
  alpha Z        PSCENC =       264.60919239
  Ewald energy   TEWEN  =     -4637.17866551
  -Hartree energ DENC   =     -1536.66217102
  -exchange      EXHF   =         0.00000000
  -V(xc)+E(xc)   XCENC  =       220.49256834
  PAW double counting   =      5702.17777828    -5655.08140711
  entropy T*S    EENTRO =        -0.00538959
  eigenvalues    EBANDS =      -488.36366551
  atomic energy  EATOM  =      6107.80840369
  Solvation  Ediel_sol  =         0.00000000
  ---------------------------------------------------
  free energy    TOTEN  =       -22.20335605 eV

  energy without entropy =      -22.19796646  energy(sigma->0) =      -22.20066125


--------------------------------------------------------------------------------------------------------




--------------------------------------- Iteration      1(  11)  ---------------------------------------


    POTLOK:  cpu time      0.0337: real time      0.0338
    SETDIJ:  cpu time      0.4058: real time      0.4058
     EDDAV:  cpu time      0.4787: real time      0.4787
       DOS:  cpu time      0.0002: real time      0.0002
    CHARGE:  cpu time      0.0775: real time      0.0775
    MIXING:  cpu time      0.0010: real time      0.0010
    --------------------------------------------
      LOOP:  cpu time      0.9969: real time      0.9970

 eigenvalue-minimisations  :  1484
 total energy-change (2. order) :-0.2353457E-03  (-0.3825603E-04)
 number of electron      44.0000001 magnetization      -0.0783616
 augmentation part       16.5668320 magnetization      -0.0407842

 Broyden mixing:
  rms(total) = 0.94019E-02    rms(broyden)= 0.93980E-02
  rms(prec ) = 0.10375E-01
  weight for this iteration     100.00

 eigenvalues of (default mixing * dielectric matrix)
  average eigenvalue GAMMA=   1.1787
  2.5134  1.2679  1.0935  0.7781  0.7781  0.6414

 Free energy of the ion-electron system (eV)
  ---------------------------------------------------
  alpha Z        PSCENC =       264.60919239
  Ewald energy   TEWEN  =     -4637.17866551
  -Hartree energ DENC   =     -1536.85881690
  -exchange      EXHF   =         0.00000000
  -V(xc)+E(xc)   XCENC  =       220.49903514
  PAW double counting   =      5713.87191693    -5666.75866758
  entropy T*S    EENTRO =        -0.00499425
  eigenvalues    EBANDS =      -488.19099530
  atomic energy  EATOM  =      6107.80840369
  Solvation  Ediel_sol  =         0.00000000
  ---------------------------------------------------
  free energy    TOTEN  =       -22.20359139 eV

  energy without entropy =      -22.19859714  energy(sigma->0) =      -22.20109427


--------------------------------------------------------------------------------------------------------




--------------------------------------- Iteration      1(  12)  ---------------------------------------


    POTLOK:  cpu time      0.0334: real time      0.0335
    SETDIJ:  cpu time      0.4061: real time      0.4061
     EDDAV:  cpu time      0.4693: real time      0.4694
       DOS:  cpu time      0.0002: real time      0.0002
    CHARGE:  cpu time      0.0776: real time      0.0776
    MIXING:  cpu time      0.0012: real time      0.0012
    --------------------------------------------
      LOOP:  cpu time      0.9876: real time      0.9879

 eigenvalue-minimisations  :  1428
 total energy-change (2. order) :-0.5506132E-04  (-0.3996161E-05)
 number of electron      44.0000001 magnetization      -0.0868521
 augmentation part       16.5671403 magnetization      -0.0472417

 Broyden mixing:
  rms(total) = 0.26920E-02    rms(broyden)= 0.26895E-02
  rms(prec ) = 0.34665E-02
  weight for this iteration     100.00

 eigenvalues of (default mixing * dielectric matrix)
  average eigenvalue GAMMA=   1.1849
  2.5338  1.3803  1.3803  0.7934  0.7934  0.7723  0.6413

 Free energy of the ion-electron system (eV)
  ---------------------------------------------------
  alpha Z        PSCENC =       264.60919239
  Ewald energy   TEWEN  =     -4637.17866551
  -Hartree energ DENC   =     -1536.91550464
  -exchange      EXHF   =         0.00000000
  -V(xc)+E(xc)   XCENC  =       220.50130098
  PAW double counting   =      5717.46785901    -5670.34109555
  entropy T*S    EENTRO =        -0.00485573
  eigenvalues    EBANDS =      -488.15028111
  atomic energy  EATOM  =      6107.80840369
  Solvation  Ediel_sol  =         0.00000000
  ---------------------------------------------------
  free energy    TOTEN  =       -22.20364646 eV

  energy without entropy =      -22.19879073  energy(sigma->0) =      -22.20121859


--------------------------------------------------------------------------------------------------------




--------------------------------------- Iteration      1(  13)  ---------------------------------------


    POTLOK:  cpu time      0.0338: real time      0.0338
    SETDIJ:  cpu time      0.4069: real time      0.4069
     EDDAV:  cpu time      0.4722: real time      0.4722
       DOS:  cpu time      0.0002: real time      0.0002
    CHARGE:  cpu time      0.0773: real time      0.0773
    MIXING:  cpu time      0.0011: real time      0.0011
    --------------------------------------------
      LOOP:  cpu time      0.9914: real time      0.9915

 eigenvalue-minimisations  :  1444
 total energy-change (2. order) :-0.1041233E-04  (-0.7694081E-06)
 number of electron      44.0000001 magnetization      -0.0929514
 augmentation part       16.5671777 magnetization      -0.0509313

 Broyden mixing:
  rms(total) = 0.15026E-02    rms(broyden)= 0.15010E-02
  rms(prec ) = 0.18772E-02
  weight for this iteration     100.00

 eigenvalues of (default mixing * dielectric matrix)
  average eigenvalue GAMMA=   1.2718
  2.7054  2.1525  1.4395  0.8942  0.8942  0.7343  0.7343  0.6203

 Free energy of the ion-electron system (eV)
  ---------------------------------------------------
  alpha Z        PSCENC =       264.60919239
  Ewald energy   TEWEN  =     -4637.17866551
  -Hartree energ DENC   =     -1536.95553480
  -exchange      EXHF   =         0.00000000
  -V(xc)+E(xc)   XCENC  =       220.50284281
  PAW double counting   =      5717.72748078    -5670.58635197
  entropy T*S    EENTRO =        -0.00477398
  eigenvalues    EBANDS =      -488.12625028
  atomic energy  EATOM  =      6107.80840369
  Solvation  Ediel_sol  =         0.00000000
  ---------------------------------------------------
  free energy    TOTEN  =       -22.20365687 eV

  energy without entropy =      -22.19888288  energy(sigma->0) =      -22.20126988


--------------------------------------------------------------------------------------------------------




--------------------------------------- Iteration      1(  14)  ---------------------------------------


    POTLOK:  cpu time      0.0334: real time      0.0334
    SETDIJ:  cpu time      0.4054: real time      0.4055
     EDDAV:  cpu time      0.4451: real time      0.4452
       DOS:  cpu time      0.0002: real time      0.0002
    CHARGE:  cpu time      0.0774: real time      0.0775
    MIXING:  cpu time      0.0016: real time      0.0016
    --------------------------------------------
      LOOP:  cpu time      0.9631: real time      0.9634

 eigenvalue-minimisations  :  1332
 total energy-change (2. order) :-0.4168553E-05  (-0.6319168E-06)
 number of electron      44.0000001 magnetization      -0.0951260
 augmentation part       16.5671011 magnetization      -0.0506489

 Broyden mixing:
  rms(total) = 0.77408E-03    rms(broyden)= 0.77129E-03
  rms(prec ) = 0.88272E-03
  weight for this iteration     100.00

 eigenvalues of (default mixing * dielectric matrix)
  average eigenvalue GAMMA=   1.2781
  2.9060  2.3804  1.5305  0.9570  0.9570  0.7371  0.7371  0.6601  0.6381

 Free energy of the ion-electron system (eV)
  ---------------------------------------------------
  alpha Z        PSCENC =       264.60919239
  Ewald energy   TEWEN  =     -4637.17866551
  -Hartree energ DENC   =     -1536.99338107
  -exchange      EXHF   =         0.00000000
  -V(xc)+E(xc)   XCENC  =       220.50432918
  PAW double counting   =      5717.56733473    -5670.41553871
  entropy T*S    EENTRO =        -0.00468990
  eigenvalues    EBANDS =      -488.10064585
  atomic energy  EATOM  =      6107.80840369
  Solvation  Ediel_sol  =         0.00000000
  ---------------------------------------------------
  free energy    TOTEN  =       -22.20366104 eV

  energy without entropy =      -22.19897114  energy(sigma->0) =      -22.20131609


--------------------------------------------------------------------------------------------------------




--------------------------------------- Iteration      1(  15)  ---------------------------------------


    POTLOK:  cpu time      0.0334: real time      0.0335
    SETDIJ:  cpu time      0.4063: real time      0.4065
     EDDAV:  cpu time      0.3469: real time      0.3469
       DOS:  cpu time      0.0002: real time      0.0002
    CHARGE:  cpu time      0.0773: real time      0.0773
    MIXING:  cpu time      0.0012: real time      0.0012
    --------------------------------------------
      LOOP:  cpu time      0.8654: real time      0.8656

 eigenvalue-minimisations  :   852
 total energy-change (2. order) :-0.1326516E-05  (-0.8697985E-07)
 number of electron      44.0000001 magnetization      -0.0986819
 augmentation part       16.5670803 magnetization      -0.0532381

 Broyden mixing:
  rms(total) = 0.67202E-03    rms(broyden)= 0.67104E-03
  rms(prec ) = 0.74825E-03
  weight for this iteration     100.00

 eigenvalues of (default mixing * dielectric matrix)
  average eigenvalue GAMMA=   1.3401
  3.3989  2.4840  1.6460  1.0708  1.0708  0.8174  0.8174  0.7760  0.6992  0.6202

 Free energy of the ion-electron system (eV)
  ---------------------------------------------------
  alpha Z        PSCENC =       264.60919239
  Ewald energy   TEWEN  =     -4637.17866551
  -Hartree energ DENC   =     -1537.00046237
  -exchange      EXHF   =         0.00000000
  -V(xc)+E(xc)   XCENC  =       220.50464330
  PAW double counting   =      5717.43668162    -5670.28420567
  entropy T*S    EENTRO =        -0.00465514
  eigenvalues    EBANDS =      -488.09459468
  atomic energy  EATOM  =      6107.80840369
  Solvation  Ediel_sol  =         0.00000000
  ---------------------------------------------------
  free energy    TOTEN  =       -22.20366236 eV

  energy without entropy =      -22.19900722  energy(sigma->0) =      -22.20133479


--------------------------------------------------------------------------------------------------------




--------------------------------------- Iteration      1(  16)  ---------------------------------------


    POTLOK:  cpu time      0.0333: real time      0.0334
    SETDIJ:  cpu time      0.4075: real time      0.4076
     EDDAV:  cpu time      0.3408: real time      0.3408
       DOS:  cpu time      0.0002: real time      0.0002
    CHARGE:  cpu time      0.0780: real time      0.0780
    MIXING:  cpu time      0.0013: real time      0.0013
    --------------------------------------------
      LOOP:  cpu time      0.8611: real time      0.8612

 eigenvalue-minimisations  :   820
 total energy-change (2. order) :-0.1038116E-05  (-0.1322449E-06)
 number of electron      44.0000001 magnetization      -0.1020272
 augmentation part       16.5670696 magnetization      -0.0552555

 Broyden mixing:
  rms(total) = 0.41131E-03    rms(broyden)= 0.40957E-03
  rms(prec ) = 0.47479E-03
  weight for this iteration     100.00

 eigenvalues of (default mixing * dielectric matrix)
  average eigenvalue GAMMA=   1.4307
  3.8096  2.5361  2.0431  1.4017  1.4017  0.8586  0.8180  0.8180  0.7590  0.6675
  0.6243

 Free energy of the ion-electron system (eV)
  ---------------------------------------------------
  alpha Z        PSCENC =       264.60919239
  Ewald energy   TEWEN  =     -4637.17866551
  -Hartree energ DENC   =     -1537.00434510
  -exchange      EXHF   =         0.00000000
  -V(xc)+E(xc)   XCENC  =       220.50479372
  PAW double counting   =      5717.31669586    -5670.16484665
  entropy T*S    EENTRO =        -0.00460430
  eigenvalues    EBANDS =      -488.09028750
  atomic energy  EATOM  =      6107.80840369
  Solvation  Ediel_sol  =         0.00000000
  ---------------------------------------------------
  free energy    TOTEN  =       -22.20366340 eV

  energy without entropy =      -22.19905910  energy(sigma->0) =      -22.20136125


--------------------------------------------------------------------------------------------------------




--------------------------------------- Iteration      1(  17)  ---------------------------------------


    POTLOK:  cpu time      0.0334: real time      0.0335
    SETDIJ:  cpu time      0.4078: real time      0.4079
     EDDAV:  cpu time      0.3348: real time      0.3348
       DOS:  cpu time      0.0002: real time      0.0002
    --------------------------------------------
      LOOP:  cpu time      0.7762: real time      0.7764

 eigenvalue-minimisations  :   800
 total energy-change (2. order) :-0.6234895E-06  (-0.1272794E-06)
 number of electron      44.0000001 magnetization      -0.1020272
 augmentation part       16.5670696 magnetization      -0.0552555

 Free energy of the ion-electron system (eV)
  ---------------------------------------------------
  alpha Z        PSCENC =       264.60919239
  Ewald energy   TEWEN  =     -4637.17866551
  -Hartree energ DENC   =     -1537.00718540
  -exchange      EXHF   =         0.00000000
  -V(xc)+E(xc)   XCENC  =       220.50486619
  PAW double counting   =      5717.22058653    -5670.06977988
  entropy T*S    EENTRO =        -0.00455317
  eigenvalues    EBANDS =      -488.08652887
  atomic energy  EATOM  =      6107.80840369
  Solvation  Ediel_sol  =         0.00000000
  ---------------------------------------------------
  free energy    TOTEN  =       -22.20366402 eV

  energy without entropy =      -22.19911086  energy(sigma->0) =      -22.20138744


--------------------------------------------------------------------------------------------------------




 average (electrostatic) potential at core
  the test charge radii are     1.0504  0.7215
  (the norm of the test charge is              1.0000)
       1 -77.8273       2 -77.8273       3 -69.9897       4 -69.9897
 
 
 
 E-fermi :   6.9573     XC(G=0): -11.8668     alpha+bet :-12.7273

 val. band max:        6.9506943667   @ k =   0.5000   0.5000   0.3333
 cond. band min:       6.9999467984   @ k =   0.5000   0.5000   0.3333
 fundamental gap:      0.0492524317
 Fermi energy:         6.9573415420

 spin component 1

 k-point     1 :       0.0000    0.0000    0.0000
  band No.  band energies     occupation 
      1     -43.9322      1.00000
      2     -43.9322      1.00000
      3     -43.9258      1.00000
      4     -43.8765      1.00000
      5     -43.1304      1.00000
      6     -43.1304      1.00000
      7     -13.3750      1.00000
      8     -12.1513      1.00000
      9      -1.9165      1.00000
     10       0.0306      1.00000
     11       0.0306      1.00000
     12       2.6151      1.00000
     13       2.8419      1.00000
     14       2.8419      1.00000
     15       3.1558      1.00000
     16       3.3785      1.00000
     17       3.6193      1.00000
     18       4.9209      1.00000
     19       4.9209      1.00000
     20       4.9744      1.00000
     21       5.1916      1.00000
     22       5.8532      1.00000
     23       8.8285      0.00000
     24       8.8285      0.00000
     25       9.0183      0.00000
     26      12.3665      0.00000
     27      15.2327      0.00000
     28      21.4469      0.00000

 k-point     2 :       0.2500    0.0000    0.0000
  band No.  band energies     occupation 
      1     -43.9750      1.00000
      2     -43.9298      1.00000
      3     -43.9142      1.00000
      4     -43.8791      1.00000
      5     -43.1626      1.00000
      6     -43.1275      1.00000
      7     -13.0999      1.00000
      8     -12.2589      1.00000
      9      -1.3342      1.00000
     10       0.1533      1.00000
     11       0.1883      1.00000
     12       0.8331      1.00000
     13       2.3953      1.00000
     14       2.7534      1.00000
     15       3.1228      1.00000
     16       4.0242      1.00000
     17       4.5340      1.00000
     18       4.7280      1.00000
     19       4.8896      1.00000
     20       5.1532      1.00000
     21       5.5269      1.00000
     22       5.9454      1.00000
     23       8.2910      0.00000
     24       8.6215      0.00000
     25      10.2319      0.00000
     26      13.9972      0.00000
     27      14.2717      0.00000
     28      17.1213      0.00000

 k-point     3 :       0.5000    0.0000    0.0000
  band No.  band energies     occupation 
      1     -44.0175      1.00000
      2     -43.9274      1.00000
      3     -43.8959      1.00000
      4     -43.8884      1.00000
      5     -43.1948      1.00000
      6     -43.1246      1.00000
      7     -12.8077      1.00000
      8     -12.3661      1.00000
      9      -0.6691      1.00000
     10      -0.3104      1.00000
     11       0.3578      1.00000
     12       0.8249      1.00000
     13       1.4311      1.00000
     14       2.0415      1.00000
     15       3.6177      1.00000
     16       4.4220      1.00000
     17       4.4394      1.00000
     18       4.8452      1.00000
     19       5.1081      1.00000
     20       5.4966      1.00000
     21       5.8427      1.00000
     22       6.6233      1.00000
     23       8.1348      0.00000
     24       8.4157      0.00000
     25      11.3217      0.00000
     26      13.0296      0.00000
     27      13.6672      0.00000
     28      17.2892      0.00000

 k-point     4 :       0.2500    0.2500    0.0000
  band No.  band energies     occupation 
      1     -43.9791      1.00000
      2     -43.9655      1.00000
      3     -43.9045      1.00000
      4     -43.8798      1.00000
      5     -43.1627      1.00000
      6     -43.1563      1.00000
      7     -12.8275      1.00000
      8     -12.3623      1.00000
      9      -0.6798      1.00000
     10      -0.0759      1.00000
     11       0.7037      1.00000
     12       0.7123      1.00000
     13       0.7196      1.00000
     14       2.8528      1.00000
     15       3.9629      1.00000
     16       4.2801      1.00000
     17       4.4314      1.00000
     18       4.5601      1.00000
     19       5.0097      1.00000
     20       5.2489      1.00000
     21       5.6451      1.00000
     22       5.9276      1.00000
     23       7.5103      0.00000
     24       8.7055      0.00000
     25      11.1569      0.00000
     26      13.9331      0.00000
     27      15.9332      0.00000
     28      17.4346      0.00000

 k-point     5 :       0.5000    0.2500    0.0000
  band No.  band energies     occupation 
      1     -44.0165      1.00000
      2     -43.9677      1.00000
      3     -43.8895      1.00000
      4     -43.8858      1.00000
      5     -43.1920      1.00000
      6     -43.1558      1.00000
      7     -12.5381      1.00000
      8     -12.4655      1.00000
      9      -0.3960      1.00000
     10       0.0588      1.00000
     11       0.1028      1.00000
     12       0.5815      1.00000
     13       1.2915      1.00000
     14       2.0686      1.00000
     15       4.1722      1.00000
     16       4.2539      1.00000
     17       4.5454      1.00000
     18       4.6379      1.00000
     19       5.1979      1.00000
     20       5.4372      1.00000
     21       5.4789      1.00000
     22       6.9077      0.92003
     23       7.0060      0.08451
     24       8.8827      0.00000
     25      11.4128      0.00000
     26      13.6928      0.00000
     27      15.0751      0.00000
     28      18.3211      0.00000

 k-point     6 :       0.5000    0.5000    0.0000
  band No.  band energies     occupation 
      1     -44.0252      1.00000
      2     -43.9981      1.00000
      3     -43.8832      1.00000
      4     -43.8832      1.00000
      5     -43.1943      1.00000
      6     -43.1817      1.00000
      7     -12.5650      1.00000
      8     -12.2511      1.00000
      9      -0.5008      1.00000
     10      -0.5008      1.00000
     11       0.1297      1.00000
     12       1.1516      1.00000
     13       2.1699      1.00000
     14       2.1699      1.00000
     15       3.1196      1.00000
     16       4.2908      1.00000
     17       4.2908      1.00000
     18       4.8987      1.00000
     19       4.9766      1.00000
     20       4.9766      1.00000
     21       6.3611      1.00000
     22       7.1668      0.00000
     23       7.1668      0.00000
     24       9.2513      0.00000
     25       9.8069      0.00000
     26      15.0994      0.00000
     27      18.6937      0.00000
     28      18.6937      0.00000

 k-point     7 :       0.0000    0.0000    0.3333
  band No.  band energies     occupation 
      1     -43.9322      1.00000
      2     -43.9322      1.00000
      3     -43.9136      1.00000
      4     -43.8889      1.00000
      5     -43.1304      1.00000
      6     -43.1304      1.00000
      7     -13.1050      1.00000
      8     -12.4989      1.00000
      9      -1.0176      1.00000
     10       0.1172      1.00000
     11       0.1172      1.00000
     12       1.0944      1.00000
     13       2.4056      1.00000
     14       2.4056      1.00000
     15       3.1605      1.00000
     16       3.2356      1.00000
     17       4.4170      1.00000
     18       5.0277      1.00000
     19       5.1363      1.00000
     20       5.2157      1.00000
     21       5.6609      1.00000
     22       5.6609      1.00000
     23       8.3447      0.00000
     24       8.3447      0.00000
     25      10.1090      0.00000
     26      11.7343      0.00000
     27      16.9829      0.00000
     28      20.9527      0.00000

 k-point     8 :       0.2500    0.0000    0.3333
  band No.  band energies     occupation 
      1     -43.9766      1.00000
      2     -43.9298      1.00000
      3     -43.9045      1.00000
      4     -43.8872      1.00000
      5     -43.1626      1.00000
      6     -43.1275      1.00000
      7     -12.9519      1.00000
      8     -12.4386      1.00000
      9      -0.9822      1.00000
     10       0.1177      1.00000
     11       0.4488      1.00000
     12       0.7487      1.00000
     13       1.6330      1.00000
     14       2.5868      1.00000
     15       3.3447      1.00000
     16       4.0685      1.00000
     17       4.6378      1.00000
     18       4.8948      1.00000
     19       4.9521      1.00000
     20       5.3742      1.00000
     21       5.4973      1.00000
     22       5.7014      1.00000
     23       7.4439      0.00000
     24       8.5836      0.00000
     25      11.2389      0.00000
     26      12.5783      0.00000
     27      16.8448      0.00000
     28      17.3806      0.00000

 k-point     9 :       0.5000    0.0000    0.3333
  band No.  band energies     occupation 
      1     -44.0195      1.00000
      2     -43.9274      1.00000
      3     -43.8937      1.00000
      4     -43.8885      1.00000
      5     -43.1946      1.00000
      6     -43.1246      1.00000
      7     -12.9062      1.00000
      8     -12.2558      1.00000
      9      -0.8278      1.00000
     10      -0.3774      1.00000
     11       0.1002      1.00000
     12       1.0300      1.00000
     13       1.8495      1.00000
     14       2.8399      1.00000
     15       3.4749      1.00000
     16       4.1887      1.00000
     17       4.3104      1.00000
     18       4.9096      1.00000
     19       4.9536      1.00000
     20       4.9915      1.00000
     21       5.5563      1.00000
     22       6.2884      1.00000
     23       8.2092      0.00000
     24       8.8176      0.00000
     25      11.2262      0.00000
     26      13.7608      0.00000
     27      13.8410      0.00000
     28      16.5432      0.00000

 k-point    10 :       0.2500    0.2500    0.3333
  band No.  band energies     occupation 
      1     -43.9764      1.00000
      2     -43.9698      1.00000
      3     -43.8974      1.00000
      4     -43.8853      1.00000
      5     -43.1611      1.00000
      6     -43.1579      1.00000
      7     -12.7167      1.00000
      8     -12.4843      1.00000
      9      -0.5430      1.00000
     10      -0.3166      1.00000
     11       0.8605      1.00000
     12       1.0265      1.00000
     13       1.0411      1.00000
     14       1.9204      1.00000
     15       4.1947      1.00000
     16       4.2456      1.00000
     17       4.3757      1.00000
     18       4.6461      1.00000
     19       5.1126      1.00000
     20       5.5160      1.00000
     21       5.5342      1.00000
     22       5.6122      1.00000
     23       7.6373      0.00000
     24       8.0594      0.00000
     25      11.9156      0.00000
     26      12.9630      0.00000
     27      18.2102      0.00000
     28      18.2255      0.00000

 k-point    11 :       0.5000    0.2500    0.3333
  band No.  band energies     occupation 
      1     -44.0161      1.00000
      2     -43.9692      1.00000
      3     -43.8885      1.00000
      4     -43.8859      1.00000
      5     -43.1915      1.00000
      6     -43.1562      1.00000
      7     -12.6559      1.00000
      8     -12.3419      1.00000
      9      -0.2160      1.00000
     10      -0.1423      1.00000
     11      -0.0690      1.00000
     12       0.9477      1.00000
     13       1.2652      1.00000
     14       2.0837      1.00000
     15       3.8687      1.00000
     16       4.3156      1.00000
     17       4.5885      1.00000
     18       4.9005      1.00000
     19       4.9031      1.00000
     20       4.9728      1.00000
     21       5.7450      1.00000
     22       6.6723      1.00000
     23       7.6857      0.00000
     24       8.4547      0.00000
     25      11.5501      0.00000
     26      13.3549      0.00000
     27      15.8331      0.00000
     28      17.7191      0.00000

 k-point    12 :       0.5000    0.5000    0.3333
  band No.  band energies     occupation 
      1     -44.0184      1.00000
      2     -44.0049      1.00000
      3     -43.8832      1.00000
      4     -43.8832      1.00000
      5     -43.1912      1.00000
      6     -43.1849      1.00000
      7     -12.4885      1.00000
      8     -12.3314      1.00000
      9      -0.0471      1.00000
     10      -0.0471      1.00000
     11       0.3563      1.00000
     12       0.8600      1.00000
     13       1.1520      1.00000
     14       1.1520      1.00000
     15       3.4504      1.00000
     16       4.2947      1.00000
     17       4.9763      1.00000
     18       4.9763      1.00000
     19       5.0983      1.00000
     20       5.0983      1.00000
     21       6.9507      0.57457
     22       6.9507      0.57457
     23       6.9999      0.11409
     24       8.4026      0.00000
     25      10.9853      0.00000
     26      13.3997      0.00000
     27      18.6413      0.00000
     28      18.6438      0.00000
 Fermi energy:         6.9573415420

 spin component 2

 k-point     1 :       0.0000    0.0000    0.0000
  band No.  band energies     occupation 
      1     -43.9737      1.00000
      2     -43.9737      1.00000
      3     -43.9718      1.00000
      4     -43.9227      1.00000
      5     -43.1559      1.00000
      6     -43.1559      1.00000
      7     -13.3897      1.00000
      8     -12.1670      1.00000
      9      -1.9279      1.00000
     10      -0.0037      1.00000
     11      -0.0037      1.00000
     12       2.5986      1.00000
     13       2.8262      1.00000
     14       2.8262      1.00000
     15       3.1243      1.00000
     16       3.3650      1.00000
     17       3.5950      1.00000
     18       4.8944      1.00000
     19       4.8944      1.00000
     20       4.9527      1.00000
     21       5.1697      1.00000
     22       5.8377      1.00000
     23       8.7824      0.00000
     24       8.7824      0.00000
     25       9.0000      0.00000
     26      12.3654      0.00000
     27      15.2174      0.00000
     28      21.4401      0.00000

 k-point     2 :       0.2500    0.0000    0.0000
  band No.  band energies     occupation 
      1     -44.0163      1.00000
      2     -43.9713      1.00000
      3     -43.9602      1.00000
      4     -43.9253      1.00000
      5     -43.1882      1.00000
      6     -43.1530      1.00000
      7     -13.1149      1.00000
      8     -12.2752      1.00000
      9      -1.3460      1.00000
     10       0.1251      1.00000
     11       0.1526      1.00000
     12       0.8188      1.00000
     13       2.3789      1.00000
     14       2.7352      1.00000
     15       3.0994      1.00000
     16       4.0017      1.00000
     17       4.5028      1.00000
     18       4.7070      1.00000
     19       4.8666      1.00000
     20       5.1302      1.00000
     21       5.5058      1.00000
     22       5.9285      1.00000
     23       8.2434      0.00000
     24       8.5733      0.00000
     25      10.2171      0.00000
     26      13.9848      0.00000
     27      14.2682      0.00000
     28      17.1148      0.00000

 k-point     3 :       0.5000    0.0000    0.0000
  band No.  band energies     occupation 
      1     -44.0587      1.00000
      2     -43.9689      1.00000
      3     -43.9420      1.00000
      4     -43.9345      1.00000
      5     -43.2203      1.00000
      6     -43.1502      1.00000
      7     -12.8229      1.00000
      8     -12.3831      1.00000
      9      -0.6811      1.00000
     10      -0.3241      1.00000
     11       0.3205      1.00000
     12       0.8115      1.00000
     13       1.3994      1.00000
     14       2.0247      1.00000
     15       3.5886      1.00000
     16       4.3999      1.00000
     17       4.4190      1.00000
     18       4.8263      1.00000
     19       5.0900      1.00000
     20       5.4780      1.00000
     21       5.8221      1.00000
     22       6.5882      1.00000
     23       8.0822      0.00000
     24       8.3650      0.00000
     25      11.3189      0.00000
     26      13.0240      0.00000
     27      13.6515      0.00000
     28      17.2855      0.00000

 k-point     4 :       0.2500    0.2500    0.0000
  band No.  band energies     occupation 
      1     -44.0205      1.00000
      2     -44.0069      1.00000
      3     -43.9506      1.00000
      4     -43.9260      1.00000
      5     -43.1882      1.00000
      6     -43.1819      1.00000
      7     -12.8427      1.00000
      8     -12.3792      1.00000
      9      -0.6920      1.00000
     10      -0.1100      1.00000
[...]
      9      -1.0295      1.00000
     10       0.0818      1.00000
     11       0.0818      1.00000
     12       1.0814      1.00000
     13       2.3893      1.00000
     14       2.3893      1.00000
     15       3.1361      1.00000
     16       3.2047      1.00000
     17       4.3989      1.00000
     18       5.0060      1.00000
     19       5.1144      1.00000
     20       5.2015      1.00000
     21       5.6390      1.00000
     22       5.6390      1.00000
     23       8.2962      0.00000
     24       8.2962      0.00000
     25      10.0929      0.00000
     26      11.7235      0.00000
     27      16.9751      0.00000
     28      20.9474      0.00000

 k-point     8 :       0.2500    0.0000    0.3333
  band No.  band energies     occupation 
      1     -44.0181      1.00000
      2     -43.9713      1.00000
      3     -43.9505      1.00000
      4     -43.9333      1.00000
      5     -43.1881      1.00000
      6     -43.1531      1.00000
      7     -12.9673      1.00000
      8     -12.4543      1.00000
      9      -1.0007      1.00000
     10       0.0828      1.00000
     11       0.4277      1.00000
     12       0.7338      1.00000
     13       1.6193      1.00000
     14       2.5704      1.00000
     15       3.3167      1.00000
     16       4.0381      1.00000
     17       4.6151      1.00000
     18       4.8710      1.00000
     19       4.9336      1.00000
     20       5.3506      1.00000
     21       5.4777      1.00000
     22       5.6842      1.00000
     23       7.3970      0.00000
     24       8.5358      0.00000
     25      11.2217      0.00000
     26      12.5645      0.00000
     27      16.8395      0.00000
     28      17.3757      0.00000

 k-point     9 :       0.5000    0.0000    0.3333
  band No.  band energies     occupation 
      1     -44.0609      1.00000
      2     -43.9689      1.00000
      3     -43.9397      1.00000
      4     -43.9347      1.00000
      5     -43.2201      1.00000
      6     -43.1502      1.00000
      7     -12.9224      1.00000
      8     -12.2716      1.00000
      9      -0.8472      1.00000
     10      -0.3916      1.00000
     11       0.0661      1.00000
     12       1.0178      1.00000
     13       1.8321      1.00000
     14       2.8216      1.00000
     15       3.4455      1.00000
     16       4.1641      1.00000
     17       4.2907      1.00000
     18       4.8834      1.00000
     19       4.9361      1.00000
     20       4.9718      1.00000
     21       5.5372      1.00000
     22       6.2422      1.00000
     23       8.1639      0.00000
     24       8.7710      0.00000
     25      11.2224      0.00000
     26      13.7563      0.00000
     27      13.8248      0.00000
     28      16.5328      0.00000

 k-point    10 :       0.2500    0.2500    0.3333
  band No.  band energies     occupation 
      1     -44.0179      1.00000
      2     -44.0113      1.00000
      3     -43.9435      1.00000
      4     -43.9314      1.00000
      5     -43.1866      1.00000
      6     -43.1834      1.00000
      7     -12.7323      1.00000
      8     -12.5007      1.00000
      9      -0.5627      1.00000
     10      -0.3457      1.00000
     11       0.8416      1.00000
     12       1.0114      1.00000
     13       1.0252      1.00000
     14       1.9047      1.00000
     15       4.1694      1.00000
     16       4.2221      1.00000
     17       4.3474      1.00000
     18       4.6174      1.00000
     19       5.0942      1.00000
     20       5.4907      1.00000
     21       5.5129      1.00000
     22       5.5950      1.00000
     23       7.5893      0.00000
     24       8.0124      0.00000
     25      11.8990      0.00000
     26      12.9495      0.00000
     27      18.2059      0.00000
     28      18.2214      0.00000

 k-point    11 :       0.5000    0.2500    0.3333
  band No.  band energies     occupation 
      1     -44.0574      1.00000
      2     -44.0106      1.00000
      3     -43.9346      1.00000
      4     -43.9320      1.00000
      5     -43.2170      1.00000
      6     -43.1818      1.00000
      7     -12.6725      1.00000
      8     -12.3582      1.00000
      9      -0.2428      1.00000
     10      -0.1575      1.00000
     11      -0.0910      1.00000
     12       0.9343      1.00000
     13       1.2465      1.00000
     14       2.0671      1.00000
     15       3.8469      1.00000
     16       4.2952      1.00000
     17       4.5624      1.00000
     18       4.8735      1.00000
     19       4.8854      1.00000
     20       4.9529      1.00000
     21       5.7203      1.00000
     22       6.6319      1.00000
     23       7.6362      0.00000
     24       8.4068      0.00000
     25      11.5463      0.00000
     26      13.3437      0.00000
     27      15.8257      0.00000
     28      17.7074      0.00000

 k-point    12 :       0.5000    0.5000    0.3333
  band No.  band energies     occupation 
      1     -44.0597      1.00000
      2     -44.0462      1.00000
      3     -43.9293      1.00000
      4     -43.9293      1.00000
      5     -43.2167      1.00000
      6     -43.2104      1.00000
      7     -12.5060      1.00000
      8     -12.3477      1.00000
      9      -0.0628      1.00000
     10      -0.0628      1.00000
     11       0.3241      1.00000
     12       0.8400      1.00000
     13       1.1363      1.00000
     14       1.1363      1.00000
     15       3.4351      1.00000
     16       4.2778      1.00000
     17       4.9586      1.00000
     18       4.9586      1.00000
     19       5.0771      1.00000
     20       5.0771      1.00000
     21       6.9129      0.89585
     22       6.9129      0.89585
     23       6.9378      0.70938
     24       8.3507      0.00000
     25      10.9842      0.00000
     26      13.3978      0.00000
     27      18.6354      0.00000
     28      18.6381      0.00000


--------------------------------------------------------------------------------------------------------


 soft charge-density along one line, spin component            1
         0         1         2         3         4         5         6         7         8         9
 total charge-density along one line
 
 soft charge-density along one line, spin component            2
         0         1         2         3         4         5         6         7         8         9
 total charge-density along one line
 
 pseudopotential strength for first ion, spin component:            1
-38.793  -0.000  -0.000   9.104   0.000   0.000   0.000  -0.000
 -0.000 -39.186  -0.000   0.000   9.327   0.000   0.000  -0.000
 -0.000  -0.000 -39.211   0.000   0.000   9.345  -0.000   0.000
  9.104   0.000   0.000   7.645  -0.000  -0.000  -0.000   0.000
  0.000   9.327   0.000  -0.000   7.593  -0.000  -0.000   0.000
  0.000   0.000   9.345  -0.000  -0.000   7.591  -0.000  -0.000
  0.000   0.000  -0.000  -0.000  -0.000  -0.000  -3.747  -0.000
 -0.000  -0.000   0.000   0.000   0.000  -0.000  -0.000  -3.728
  0.000  -0.000  -0.000  -0.000   0.000   0.000   0.000   0.000
  0.000   0.000  -0.000  -0.000  -0.000   0.000  -0.000   0.000
  0.000  -0.000   0.000  -0.000   0.000  -0.000  -0.000   0.000
  0.000   0.000  -0.000  -0.000  -0.000  -0.000  -3.558  -0.000
 -0.000  -0.000   0.000   0.000   0.000  -0.000  -0.000  -3.537
  0.000  -0.000  -0.000  -0.000   0.000   0.000   0.000   0.000
  0.000   0.000  -0.000  -0.000  -0.000   0.000  -0.000   0.000
  0.000  -0.000   0.000  -0.000   0.000  -0.000  -0.000   0.000
  0.000   0.000  -0.000   0.000   0.000  -0.000   0.000   0.000
  0.000   0.000  -0.000   0.000   0.000  -0.000   0.000   0.000
 pseudopotential strength for first ion, spin component:            2
-38.807  -0.000  -0.000   9.111   0.000   0.000   0.000  -0.000
 -0.000 -39.211  -0.000   0.000   9.341   0.000   0.000  -0.000
 -0.000  -0.000 -39.234   0.000   0.000   9.357   0.000   0.000
  9.111   0.000   0.000   7.644  -0.000  -0.000  -0.000   0.000
  0.000   9.341   0.000  -0.000   7.590  -0.000  -0.000   0.000
  0.000   0.000   9.357  -0.000  -0.000   7.588  -0.000  -0.000
  0.000   0.000   0.000  -0.000  -0.000  -0.000  -3.760  -0.000
 -0.000  -0.000   0.000   0.000   0.000  -0.000  -0.000  -3.740
  0.000  -0.000  -0.000  -0.000   0.000   0.000   0.000   0.000
  0.000   0.000  -0.000  -0.000  -0.000   0.000  -0.000   0.000
  0.000  -0.000   0.000  -0.000   0.000  -0.000  -0.000   0.000
  0.000   0.000   0.000  -0.000  -0.000  -0.000  -3.572  -0.000
 -0.000  -0.000   0.000   0.000   0.000  -0.000  -0.000  -3.550
  0.000  -0.000  -0.000  -0.000   0.000   0.000   0.000   0.000
  0.000   0.000  -0.000  -0.000  -0.000   0.000  -0.000   0.000
  0.000  -0.000   0.000  -0.000   0.000  -0.000  -0.000   0.000
  0.000   0.000  -0.000   0.000   0.000  -0.000   0.000   0.000
  0.000   0.000  -0.000   0.000   0.000  -0.000   0.000   0.000
 total augmentation occupancy for first ion, spin component:            1
  1.998   0.000   0.000  -0.011  -0.000  -0.000   0.000   0.000   0.000   0.000   0.000   0.000   0.000   0.000   0.000   0.000
  0.000   1.998   0.000  -0.000  -0.020  -0.000   0.000   0.000   0.000   0.000   0.000   0.000   0.000   0.000   0.000   0.000
  0.000   0.000   1.998  -0.000  -0.000  -0.021   0.000   0.000   0.000   0.000   0.000   0.000   0.000   0.000   0.000   0.000
 -0.011  -0.000  -0.000   0.044   0.000   0.000   0.000   0.000   0.000   0.000   0.000   0.000   0.000   0.000   0.000   0.000
 -0.000  -0.020  -0.000   0.000   0.134   0.000   0.000   0.000   0.000   0.000   0.000   0.000   0.000   0.000   0.000   0.000
 -0.000  -0.000  -0.021   0.000   0.000   0.159   0.000   0.000   0.000   0.000   0.000   0.000   0.000   0.000   0.000   0.000
  0.000   0.000   0.000   0.000   0.000   0.000   2.216   0.000  -0.000   0.000  -0.000  -0.323  -0.000   0.000  -0.000   0.000
  0.000   0.000   0.000   0.000   0.000   0.000   0.000   2.150   0.000   0.000  -0.000  -0.000  -0.277   0.000  -0.000   0.000
  0.000   0.000   0.000   0.000   0.000   0.000  -0.000   0.000   2.379   0.000   0.171   0.000   0.000  -0.549  -0.000  -0.120
  0.000   0.000   0.000   0.000   0.000   0.000   0.000   0.000   0.000   4.854   0.000  -0.000  -0.000  -0.000  -2.786  -0.000
  0.000   0.000   0.000   0.000   0.000   0.000  -0.000  -0.000   0.171   0.000   3.107   0.000   0.000  -0.115  -0.000  -1.171
  0.000   0.000   0.000   0.000   0.000   0.000  -0.323  -0.000   0.000  -0.000   0.000   0.377   0.000  -0.000   0.000  -0.000
  0.000   0.000   0.000   0.000   0.000   0.000  -0.000  -0.277   0.000  -0.000   0.000   0.000   0.368   0.000   0.000  -0.000
  0.000   0.000   0.000   0.000   0.000   0.000   0.000   0.000  -0.549  -0.000  -0.115  -0.000   0.000   0.676   0.000  -0.014
  0.000   0.000   0.000   0.000   0.000   0.000  -0.000  -0.000  -0.000  -2.786  -0.000   0.000   0.000   0.000   1.869   0.000
  0.000   0.000   0.000   0.000   0.000   0.000   0.000   0.000  -0.120  -0.000  -1.171  -0.000  -0.000  -0.014   0.000   1.087
  0.000   0.000   0.000   0.000   0.000   0.000  -0.000  -0.000   0.073   0.000   0.423   0.000   0.000  -0.266  -0.000  -0.839
  0.000   0.000   0.000   0.000   0.000   0.000  -0.000  -0.000   0.020  -0.000  -0.005  -0.000  -0.000   0.023   0.000   0.090
 total augmentation occupancy for first ion, spin component:            2
 -0.000  -0.000  -0.000  -0.000  -0.000  -0.000   0.000   0.000   0.000   0.000   0.000   0.000   0.000   0.000   0.000   0.000
 -0.000  -0.000  -0.000  -0.000   0.000   0.000   0.000   0.000   0.000   0.000   0.000   0.000   0.000   0.000   0.000   0.000
 -0.000  -0.000  -0.000  -0.000   0.000   0.000   0.000   0.000   0.000   0.000   0.000   0.000   0.000   0.000   0.000   0.000
 -0.000  -0.000  -0.000   0.000   0.000   0.000   0.000   0.000   0.000   0.000   0.000   0.000   0.000   0.000   0.000   0.000
 -0.000   0.000   0.000   0.000  -0.000  -0.000   0.000   0.000   0.000   0.000   0.000   0.000   0.000   0.000   0.000   0.000
 -0.000   0.000   0.000   0.000  -0.000  -0.000   0.000   0.000   0.000   0.000   0.000   0.000   0.000   0.000   0.000   0.000
  0.000   0.000   0.000   0.000   0.000   0.000   0.003   0.000  -0.000   0.000  -0.000  -0.001  -0.000   0.000  -0.000   0.000
  0.000   0.000   0.000   0.000   0.000   0.000   0.000   0.003  -0.000   0.000  -0.000  -0.000  -0.001   0.000  -0.000   0.000
  0.000   0.000   0.000   0.000   0.000   0.000  -0.000  -0.000   0.005   0.000   0.002   0.000   0.000  -0.002  -0.000  -0.001
  0.000   0.000   0.000   0.000   0.000   0.000   0.000   0.000   0.000   0.009   0.000  -0.000  -0.000  -0.000  -0.001  -0.000
  0.000   0.000   0.000   0.000   0.000   0.000  -0.000  -0.000   0.002   0.000   0.005   0.000   0.000  -0.002  -0.000  -0.004
  0.000   0.000   0.000   0.000   0.000   0.000  -0.001  -0.000   0.000  -0.000   0.000  -0.000  -0.000   0.000  -0.000   0.000
  0.000   0.000   0.000   0.000   0.000   0.000  -0.000  -0.001   0.000  -0.000   0.000  -0.000   0.000   0.000   0.000   0.000
  0.000   0.000   0.000   0.000   0.000   0.000   0.000   0.000  -0.002  -0.000  -0.002   0.000   0.000  -0.005  -0.000  -0.005
  0.000   0.000   0.000   0.000   0.000   0.000  -0.000  -0.000  -0.000  -0.001  -0.000  -0.000   0.000  -0.000  -0.036  -0.000
  0.000   0.000   0.000   0.000   0.000   0.000   0.000   0.000  -0.001  -0.000  -0.004   0.000   0.000  -0.005  -0.000  -0.004
  0.000   0.000   0.000   0.000   0.000   0.000  -0.000  -0.000   0.001   0.000   0.001  -0.000  -0.000   0.005   0.000   0.005
  0.000   0.000   0.000   0.000   0.000   0.000   0.000   0.000  -0.001  -0.000  -0.001   0.000   0.000  -0.001  -0.000  -0.001


------------------------ aborting loop because EDIFF is reached ----------------------------------------





 total charge

# of ion       s       p       d       tot
------------------------------------------
    1        0.300   6.190   7.923  14.414
    2        0.300   6.190   7.923  14.414
    3        1.563   3.391   0.000   4.953
    4        1.563   3.391   0.000   4.953
--------------------------------------------------
tot          3.727  19.162  15.847  38.735



 magnetization (x)

# of ion       s       p       d       tot
------------------------------------------
    1       -0.000  -0.000  -0.042  -0.043
    2       -0.000  -0.000  -0.042  -0.043
    3       -0.002  -0.006   0.000  -0.008
    4       -0.002  -0.006   0.000  -0.008
--------------------------------------------------
tot         -0.006  -0.012  -0.084  -0.101
 
    CHARGE:  cpu time      0.0759: real time      0.0759
    FORLOC:  cpu time      0.0011: real time      0.0011
    FORNL :  cpu time      0.2651: real time      0.2651
    FORCOR:  cpu time      0.4364: real time      0.4364
    FORHAR:  cpu time      0.0039: real time      0.0039
    MIXING:  cpu time      0.0012: real time      0.0012
    OFIELD:  cpu time      0.0000: real time      0.0000

 ---------------------------------------------------------------------------------------------

         DFTD3 V3.0 Rev 1        
 DF pbe       
 parameters
 k1-k3        =   16.0000    1.3333   -4.0000
 Edisp (eV)   -1.24372

 E6    (eV) :    -0.7446
 E8    (eV) :    -0.4991
 % E8        : 40.13
    FORVDW:  cpu time      0.0083: real time      0.0083

 VOLUME and BASIS-vectors are now :
 -----------------------------------------------------------------------------
  energy-cutoff  :      520.00
  volume of cell :       50.08
      direct lattice vectors                 reciprocal lattice vectors
     3.053604110  0.000000000  0.000000000     0.327481875 -0.000000000  0.000000000
     0.000000000  3.053604110  0.000000000     0.000000000  0.327481875  0.000000000
     0.000000000  0.000000000  5.371256790    -0.000000000 -0.000000000  0.186176167

  length of vectors
     3.053604110  3.053604110  5.371256790     0.327481875  0.327481875  0.186176167


 FORCES acting on ions
    electron-ion (+dipol)            ewald-force                    non-local-force                 convergence-correction
 -----------------------------------------------------------------------------------------------
   0.640E-12 -.128E-14 -.686E-11   0.739E-14 -.375E-14 0.568E-13   0.496E-24 0.000E+00 0.000E+00   0.129E-12 -.295E-13 0.838E-13
   0.377E-14 0.631E-12 -.202E-12   0.256E-14 0.123E-13 -.568E-13   0.368E-24 0.000E+00 0.000E+00   -.808E-13 -.815E-14 0.353E-13
   0.238E-13 -.744E-13 0.804E-12   0.312E-15 0.187E-13 0.119E-12   -.603E-17 0.694E-17 0.555E-16   -.391E-13 0.184E-12 -.223E-12
   -.485E-13 0.372E-13 -.698E-12   -.648E-14 -.261E-13 -.119E-12   0.114E-16 -.694E-17 -.555E-16   -.240E-13 -.199E-12 0.267E-12
 -----------------------------------------------------------------------------------------------
   0.619E-12 0.592E-12 -.695E-11   0.379E-14 0.117E-14 0.128E-18   0.541E-17 0.000E+00 0.000E+00   -.150E-13 -.526E-13 0.162E-12
 
 
 POSITION                                       TOTAL-FORCE (eV/Angst)
 -----------------------------------------------------------------------------------
      1.52680      0.00000      2.68563        -0.000000      0.000000      0.000000
      0.00000      1.52680      0.00000         0.000000      0.000000      0.000000
      0.00000      0.00000      4.02844        -0.000000      0.000000     -0.000000
      0.00000      0.00000      1.34281         0.000000     -0.000000      0.000000
 -----------------------------------------------------------------------------------
    total drift:                                0.000000      0.000000     -0.000000


--------------------------------------------------------------------------------------------------------



  FREE ENERGIE OF THE ION-ELECTRON SYSTEM (eV)
  ---------------------------------------------------
  free  energy   TOTEN  =       -23.44738766 eV

  energy  without entropy=      -23.44283450  energy(sigma->0) =      -23.44511108
 


--------------------------------------------------------------------------------------------------------


    POTLOK:  cpu time      0.4430: real time      0.4430


--------------------------------------------------------------------------------------------------------


     LOOP+:  cpu time     16.0566: real time     16.8519
    4ORBIT:  cpu time      0.0000: real time      0.0000



 total charge

# of ion       s       p       d       tot
------------------------------------------
    1        0.300   6.190   7.923  14.414
    2        0.300   6.190   7.923  14.414
    3        1.563   3.391   0.000   4.953
    4        1.563   3.391   0.000   4.953
--------------------------------------------------
tot          3.727  19.162  15.847  38.735



 magnetization (x)

# of ion       s       p       d       tot
------------------------------------------
    1       -0.000  -0.000  -0.042  -0.043
    2       -0.000  -0.000  -0.042  -0.043
    3       -0.002  -0.006   0.000  -0.008
    4       -0.002  -0.006   0.000  -0.008
--------------------------------------------------
tot         -0.006  -0.012  -0.084  -0.101
 

 total amount of memory used by VASP MPI-rank0    51223. kBytes
=======================================================================

   base      :      30000. kBytes
   nonl-proj :       4787. kBytes
   fftplans  :       6896. kBytes
   grid      :       5621. kBytes
   one-center:        124. kBytes
   wavefun   :       3795. kBytes
 
  
  
 General timing and accounting informations for this job:
 ========================================================
  
                  Total CPU time used (sec):       16.970
                            User time (sec):       16.220
                          System time (sec):        0.751
                         Elapsed time (sec):       17.866
  
                   Maximum memory used (kb):      341500.
                   Average memory used (kb):          N/A
  
                          Minor page faults:       238951
                          Major page faults:            1
                 Voluntary context switches:          140
