       N       E                     dE             d eps       ncg     rms          rms(c)
DAV:   1     0.778986102062E+03    0.77899E+03   -0.40015E+04 13824   0.194E+03
DAV:   2     0.732615534773E+01   -0.77166E+03   -0.74398E+03 14072   0.576E+02
DAV:   3    -0.213823243465E+02   -0.28708E+02   -0.28028E+02 14936   0.116E+02
DAV:   4    -0.216937390950E+02   -0.31141E+00   -0.31129E+00 14472   0.128E+01
DAV:   5    -0.216988059474E+02   -0.50669E-02   -0.50668E-02 14904   0.160E+00    0.108E+01
DAV:   6    -0.208298025610E+02    0.86900E+00   -0.37542E+00 14472   0.137E+01    0.229E+00
DAV:   7    -0.208289045550E+02    0.89801E-03   -0.39096E-02 14408   0.146E+00    0.152E+00
DAV:   8    -0.208273643566E+02    0.15402E-02   -0.45228E-03 14808   0.548E-01    0.836E-01
DAV:   9    -0.208278787540E+02   -0.51440E-03   -0.25824E-03 14256   0.423E-01    0.864E-02
DAV:  10    -0.208281272945E+02   -0.24854E-03   -0.29535E-04 15152   0.130E-01    0.842E-02
DAV:  11    -0.208281778019E+02   -0.50507E-04   -0.27047E-05 14640   0.333E-02    0.680E-02
DAV:  12    -0.208282440715E+02   -0.66270E-04   -0.15274E-04 14144   0.695E-02    0.866E-03
DAV:  13    -0.208282500866E+02   -0.60152E-05   -0.42072E-06 12528   0.154E-02    0.583E-03
DAV:  14    -0.208282513558E+02   -0.12691E-05   -0.60369E-07  7480   0.569E-03    0.265E-03
DAV:  15    -0.208282528634E+02   -0.15076E-05   -0.29094E-07  7416   0.351E-03    0.123E-03
DAV:  16    -0.208282530239E+02   -0.16050E-06   -0.49225E-08  7256   0.167E-03
   1 F= -.23449178E+02 E0= -.23449136E+02  d E =-.234492E+02  mag=     0.9583
       N       E                     dE             d eps       ncg     rms          rms(c)
DAV:   1    -0.249174911860E+02   -0.40892E+01   -0.53863E+01 14000   0.607E+01    0.150E+01
DAV:   2    -0.206551742379E+02    0.42623E+01   -0.14850E+01 13992   0.287E+01    0.264E+00
DAV:   3    -0.206608550696E+02   -0.56808E-02   -0.99908E-02 13760   0.209E+00    0.163E+00
DAV:   4    -0.206697018366E+02   -0.88468E-02   -0.48260E-02 14376   0.144E+00    0.373E-01
DAV:   5    -0.206703654958E+02   -0.66366E-03   -0.93749E-04 14296   0.223E-01    0.117E-01
DAV:   6    -0.206703260864E+02    0.39409E-04   -0.26241E-04 14600   0.120E-01    0.472E-02
DAV:   7    -0.206703017004E+02    0.24386E-04   -0.35291E-05 13888   0.423E-02    0.122E-02
DAV:   8    -0.206703022644E+02   -0.56402E-06   -0.80547E-06 13624   0.204E-02
   2 F= -.23431626E+02 E0= -.23431800E+02  d E =0.175528E-01  mag=     0.7622
       N       E                     dE             d eps       ncg     rms          rms(c)
DAV:   1    -0.222765996395E+02   -0.16063E+01   -0.19201E+01 13848   0.378E+01    0.871E+00
DAV:   2    -0.207810903242E+02    0.14955E+01   -0.51769E+00 13840   0.166E+01    0.134E+00
DAV:   3    -0.207832234043E+02   -0.21331E-02   -0.41063E-02 13592   0.114E+00    0.817E-01
DAV:   4    -0.207860096468E+02   -0.27862E-02   -0.17151E-02 14408   0.869E-01    0.214E-01
DAV:   5    -0.207861677326E+02   -0.15809E-03   -0.30392E-04 14176   0.123E-01    0.756E-02
DAV:   6    -0.207861690582E+02   -0.13256E-05   -0.61803E-05 14600   0.600E-02    0.323E-02
DAV:   7    -0.207861710978E+02   -0.20396E-05   -0.75501E-06 11440   0.197E-02    0.558E-03
DAV:   8    -0.207861704934E+02    0.60442E-06   -0.12903E-06  7368   0.855E-03
   3 F= -.23463407E+02 E0= -.23463495E+02  d E =-.142286E-01  mag=     0.8627
