       N       E                     dE             d eps       ncg     rms          rms(c)
DAV:   1     0.777772250298E+03    0.77777E+03   -0.40014E+04 27192   0.194E+03
DAV:   2     0.711360204880E+01   -0.77066E+03   -0.74325E+03 27576   0.575E+02
DAV:   3    -0.213805581525E+02   -0.28494E+02   -0.27865E+02 29408   0.116E+02
DAV:   4    -0.216884991939E+02   -0.30794E+00   -0.30786E+00 28488   0.128E+01
DAV:   5    -0.216935069857E+02   -0.50078E-02   -0.50077E-02 29232   0.160E+00    0.108E+01
DAV:   6    -0.208291996578E+02    0.86431E+00   -0.37513E+00 28512   0.137E+01    0.229E+00
DAV:   7    -0.208270633593E+02    0.21363E-02   -0.38904E-02 28288   0.147E+00    0.150E+00
DAV:   8    -0.208249087632E+02    0.21546E-02   -0.43142E-03 29152   0.541E-01    0.827E-01
DAV:   9    -0.208247775525E+02    0.13121E-03   -0.21538E-03 28064   0.397E-01    0.730E-02
DAV:  10    -0.208249553950E+02   -0.17784E-03   -0.21182E-04 29952   0.115E-01    0.513E-02
DAV:  11    -0.208249712681E+02   -0.15873E-04   -0.10376E-05 27456   0.227E-02    0.428E-02
DAV:  12    -0.208249920080E+02   -0.20740E-04   -0.53686E-05 28096   0.428E-02    0.125E-02
DAV:  13    -0.208249968132E+02   -0.48052E-05   -0.40593E-06 24632   0.147E-02    0.882E-03
DAV:  14    -0.208249985063E+02   -0.16931E-05   -0.98481E-07 14448   0.678E-03    0.576E-03
DAV:  15    -0.208250010865E+02   -0.25802E-05   -0.32349E-06 21720   0.106E-02    0.166E-03
DAV:  16    -0.208250012211E+02   -0.13460E-06   -0.14918E-07 14096   0.287E-03
   1 F= -.23445927E+02 E0= -.23445135E+02  d E =-.237405E-02  mag=     1.0898
