 vasp.6.4.3 19Mar24 (build Nov 27 2025 15:18:09) complex                         
 executed on              LinuxNV date 2026.06.04  16:38:12
 running    4 mpi-ranks, with    1 threads/rank, on    1 nodes
 distrk:  each k-point on    4 cores,    1 groups
 distr:  one band on NCORE=   1 cores,    4 groups
 OpenACC runtime initialized ...    0 GPUs detected


--------------------------------------------------------------------------------------------------------


 INCAR:
   SYSTEM = pddmc
   ENCUT = 520
   PREC = Accurate
   LASPH = .TRUE.
   ADDGRID = .TRUE.
   ISPIN = 2
   IVDW = 12
   EDIFF = 1e-06
   NELM = 200
   NELMIN = 5
   ALGO = Normal
   NCORE = 1
   LREAL = .FALSE.
   LWAVE = .FALSE.
   LCHARG = .FALSE.
   LORBIT = 11
   ISYM = 2
   IBRION = -1
   NSW = 0
   ISIF = 0
   ISMEAR = 1
   SIGMA = 0.1
   EDIFFG = -0.01

 POTCAR:    PAW_PBE Pd_pv 28Jan2005               
 -----------------------------------------------------------------------------
|                                                                             |
|           W    W    AA    RRRRR   N    N  II  N    N   GGGG   !!!           |
|           W    W   A  A   R    R  NN   N  II  NN   N  G    G  !!!           |
|           W    W  A    A  R    R  N N  N  II  N N  N  G       !!!           |
|           W WW W  AAAAAA  RRRRR   N  N N  II  N  N N  G  GGG   !            |
|           WW  WW  A    A  R   R   N   NN  II  N   NN  G    G                |
|           W    W  A    A  R    R  N    N  II  N    N   GGGG   !!!           |
|                                                                             |
|     You use a magnetic or noncollinear calculation, but did not specify     |
|     the initial magnetic moment with the MAGMOM tag. Note that a            |
|     default of 1 will be used for all atoms. This ferromagnetic setup       |
|     may break the symmetry of the crystal, in particular it may rule        |
|     out finding an antiferromagnetic solution. Thence, we recommend         |
|     setting the initial magnetic moment manually or verifying carefully     |
|     that this magnetic setup is desired.                                    |
|                                                                             |
 -----------------------------------------------------------------------------

 POTCAR:    PAW_PBE Pd_pv 28Jan2005               
   SHA256 =  3ce661545bbde58da9a95410dea32907db2844916708bcd35bbe03ee66324d7f Pd_pv/POTCAR          
   COPYR  = (c) Copyright 28Jan2005 Georg Kresse                                                    
   COPYR  = This file is part of the software VASP. Any use, copying, and all other rights are regul
   COPYR  = If you do not have a valid VASP license, you may not use, copy or distribute this file. 
   VRHFIN =Pd: 4p5s4d                                                                               
   LEXCH  = PE                                                                                      
   EATOM  =  2621.5550 eV,  192.6789 Ry                                                             
                                                                                                    
   TITEL  = PAW_PBE Pd_pv 28Jan2005                                                                 
   LULTRA =        F    use ultrasoft PP ?                                                          
   IUNSCR =        1    unscreen: 0-lin 1-nonlin 2-no                                               
   RPACOR =    2.250    partial core radius                                                         
   POMASS =  106.420; ZVAL   =   16.000    mass and valenz                                          
   RCORE  =    2.400    outmost cutoff radius                                                       
   RWIGS  =    2.300; RWIGS  =    1.217    wigner-seitz radius (au A)                               
   ENMAX  =  250.925; ENMIN  =  188.194 eV                                                          
   ICORE  =        3    local potential                                                             
   LCOR   =        T    correct aug charges                                                         
   LPAW   =        T    paw PP                                                                      
   EAUG   =  473.067                                                                                
   DEXC   =    0.000                                                                                
   RMAX   =    2.449    core radius for proj-oper                                                   
   RAUG   =    1.300    factor for augmentation sphere                                              
   RDEP   =    2.405    radius for radial grids                                                     
   RDEPT  =    1.966    core radius for aug-charge                                                  
                                                                                                    
   Atomic configuration                                                                             
   11 entries                                                                                       
     n  l   j            E        occ.                                                              
     1  0  0.50    -24164.6632   2.0000                                                             
     2  0  0.50     -3530.9218   2.0000                                                             
     2  1  1.50     -3165.6822   6.0000                                                             
     3  0  0.50      -639.4578   2.0000                                                             
     3  1  1.50      -519.4532   6.0000                                                             
     3  2  2.50      -328.9758  10.0000                                                             
     4  0  0.50       -88.7014   2.0000                                                             
     4  1  1.50       -54.4541   6.0000                                                             
     4  2  2.50        -6.6878   9.0000                                                             
     5  0  0.50        -4.3543   1.0000                                                             
     4  3  2.50        -1.3606   0.0000                                                             
   Description                                                                                      
     l       E           TYP  RCUT    TYP  RCUT                                                     
     1    -54.4540524     23  2.100                                                                 
     1      4.0817478     23  2.100                                                                 
     2     -6.6878326     23  2.400                                                                 
     2     -4.0817478     23  2.400                                                                 
     0     -4.3542962     23  2.400                                                                 
     0     13.6058260     23  2.400                                                                 
     3     -5.4423304     23  2.400                                                                 
  local pseudopotential read in
  partial core-charges read in
  partial kinetic energy density read in
  atomic valenz-charges read in
  non local Contribution for L=            1  read in
    real space projection operators read in
  non local Contribution for L=            1  read in
    real space projection operators read in
  non local Contribution for L=            2  read in
    real space projection operators read in
  non local Contribution for L=            2  read in
    real space projection operators read in
  non local Contribution for L=            0  read in
    real space projection operators read in
  non local Contribution for L=            0  read in
    real space projection operators read in
    PAW grid and wavefunctions read in
 
   number of l-projection  operators is LMAX  =            6
   number of lm-projection operators is LMMAX =           18
 
  PAW_PBE Pd_pv 28Jan2005               :
 energy of atom  1       EATOM=-2621.5550
 kinetic energy error for atom=    0.0088 (will be added to EATOM!!)
 
 
 POSCAR: Pd
  positions in cartesian coordinates
  No initial velocities read in
 IVDW         = 12
 VDW_S6       =    1.0000
 VDW_S8       =    0.7875
 VDW_A1       =    0.4289
 VDW_A2       =    4.4407
 VDW_RADIUS   =   50.2022 A
 VDW_CNRADIUS =   21.1671 A


 exchange-correlation table for PE
   RHO(1)=    0.500       N(1)  =     2000
   RHO(2)=  100.500       N(2)  =     4000
 


--------------------------------------------------------------------------------------------------------


 ion  position               nearest neighbor table
   1  0.000  0.000  0.000-   2 2.77   3 2.77   2 2.77   3 2.77   2 2.77   4 2.77   2 2.77   3 2.77
                             4 2.77   3 2.77   4 2.77   4 2.77
   2  0.000  0.500  0.500-   1 2.77   4 2.77   1 2.77   4 2.77   1 2.77   3 2.77   1 2.77   3 2.77
                             4 2.77   4 2.77   3 2.77   3 2.77
   3  0.500  0.000  0.500-   1 2.77   4 2.77   1 2.77   4 2.77   2 2.77   4 2.77   4 2.77   1 2.77
                             2 2.77   1 2.77   2 2.77   2 2.77
   4  0.500  0.500  0.000-   2 2.77   3 2.77   2 2.77   3 2.77   1 2.77   3 2.77   3 2.77   1 2.77
                             2 2.77   2 2.77   1 2.77   1 2.77
 
  LATTYP: Found a simple cubic cell.
 ALAT       =     3.9173015750
  
  Lattice vectors:
  
 A1 = (   3.9173015750,   0.0000000000,   0.0000000000)
 A2 = (   0.0000000000,   3.9173015750,   0.0000000000)
 A3 = (   0.0000000000,   0.0000000000,   3.9173015750)


Analysis of symmetry for initial positions (statically):
=====================================================================
 Subroutine PRICEL returns following result:
 
  LATTYP: Found a face centered cubic cell.
 ALAT       =     3.9173015750
  
  Lattice vectors:
  
 A1 = (   1.9586507875,  -1.9586507875,   0.0000000000)
 A2 = (   1.9586507875,   0.0000000000,   1.9586507875)
 A3 = (   0.0000000000,  -1.9586507875,   1.9586507875)
 
   4 primitive cells build up your supercell.
 

 Routine SETGRP: Setting up the symmetry group for a 
 simple cubic supercell.


 Subroutine GETGRP returns: Found 48 space group operations
 (whereof 48 operations were pure point group operations)
 out of a pool of 48 trial point group operations.


The static configuration has the point symmetry O_h .


Analysis of symmetry for dynamics (positions and initial velocities):
=====================================================================
 Subroutine PRICEL returns following result:
 
  LATTYP: Found a face centered cubic cell.
 ALAT       =     3.9173015750
  
  Lattice vectors:
  
 A1 = (   1.9586507875,  -1.9586507875,   0.0000000000)
 A2 = (   1.9586507875,   0.0000000000,   1.9586507875)
 A3 = (   0.0000000000,  -1.9586507875,   1.9586507875)
 
   4 primitive cells build up your supercell.
 

 Routine SETGRP: Setting up the symmetry group for a 
 simple cubic supercell.


 Subroutine GETGRP returns: Found 48 space group operations
 (whereof 48 operations were pure point group operations)
 out of a pool of 48 trial point group operations.


The dynamic configuration has the point symmetry O_h .


Analysis of structural, dynamic, and magnetic symmetry:
=====================================================================
 Subroutine PRICEL returns following result:
 
  LATTYP: Found a face centered cubic cell.
 ALAT       =     3.9173015750
  
  Lattice vectors:
  
 A1 = (   1.9586507875,  -1.9586507875,   0.0000000000)
 A2 = (   1.9586507875,   0.0000000000,   1.9586507875)
 A3 = (   0.0000000000,  -1.9586507875,   1.9586507875)
 
   4 primitive cells build up your supercell.
 

 Routine SETGRP: Setting up the symmetry group for a 
 simple cubic supercell.


 Subroutine GETGRP returns: Found 48 space group operations
 (whereof 48 operations were pure point group operations)
 out of a pool of 48 trial point group operations.


The overall configuration has the point symmetry O_h .


 Subroutine INISYM returns: Found 48 space group operations
 (whereof 48 operations are pure point group operations),
 and found     4 'primitive' translations


----------------------------------------------------------------------------------------

                                     Primitive cell                                     

  volume of cell :      15.0280

  direct lattice vectors                    reciprocal lattice vectors
     1.958650787 -1.958650787  0.000000000     0.255277767 -0.255277767 -0.255277767
     1.958650787  0.000000000  1.958650787     0.255277767  0.255277767  0.255277767
     0.000000000 -1.958650787  1.958650787    -0.255277767 -0.255277767  0.255277767

  length of vectors
     2.769950508  2.769950508  2.769950508     0.442154063  0.442154063  0.442154063

  position of ions in fractional coordinates (direct lattice)
     0.000000000  0.000000000  0.000000000

  ion indices of the primitive-cell ions
   primitive index   ion index
                 1           1

----------------------------------------------------------------------------------------

 
 
 KPOINTS: Automatic mesh                          

Automatic generation of k-mesh.
 Grid dimensions read from file:
 generate k-points for:   16   16   16

 Generating k-lattice:

  Cartesian coordinates                     Fractional coordinates (reciprocal lattice)
     0.015954860 -0.000000000  0.000000000     0.062500000 -0.000000000  0.000000000
     0.000000000  0.015954860  0.000000000     0.000000000  0.062500000  0.000000000
    -0.000000000 -0.000000000  0.015954860    -0.000000000 -0.000000000  0.062500000

  Length of vectors
     0.015954860  0.015954860  0.015954860

  Shift w.r.t. Gamma in fractional coordinates (k-lattice)
     0.000000000  0.000000000  0.000000000

 
 Subroutine IBZKPT returns following result:
 ===========================================
 
 Found    165 irreducible k-points:
 
 Following reciprocal coordinates:
            Coordinates               Weight
  0.000000  0.000000  0.000000      1.000000
  0.062500  0.000000  0.000000      6.000000
  0.125000  0.000000  0.000000      6.000000
  0.187500  0.000000  0.000000      6.000000
  0.250000  0.000000  0.000000      6.000000
  0.312500  0.000000  0.000000      6.000000
  0.375000  0.000000  0.000000      6.000000
  0.437500  0.000000  0.000000      6.000000
  0.500000  0.000000  0.000000      3.000000
  0.062500  0.062500  0.000000     12.000000
  0.125000  0.062500  0.000000     24.000000
  0.187500  0.062500  0.000000     24.000000
  0.250000  0.062500  0.000000     24.000000
  0.312500  0.062500  0.000000     24.000000
  0.375000  0.062500  0.000000     24.000000
  0.437500  0.062500  0.000000     24.000000
  0.500000  0.062500  0.000000     12.000000
  0.125000  0.125000  0.000000     12.000000
  0.187500  0.125000  0.000000     24.000000
  0.250000  0.125000  0.000000     24.000000
  0.312500  0.125000  0.000000     24.000000
  0.375000  0.125000  0.000000     24.000000
  0.437500  0.125000  0.000000     24.000000
  0.500000  0.125000  0.000000     12.000000
  0.187500  0.187500  0.000000     12.000000
  0.250000  0.187500  0.000000     24.000000
  0.312500  0.187500  0.000000     24.000000
  0.375000  0.187500  0.000000     24.000000
  0.437500  0.187500  0.000000     24.000000
  0.500000  0.187500  0.000000     12.000000
  0.250000  0.250000  0.000000     12.000000
  0.312500  0.250000  0.000000     24.000000
  0.375000  0.250000  0.000000     24.000000
  0.437500  0.250000  0.000000     24.000000
  0.500000  0.250000  0.000000     12.000000
  0.312500  0.312500  0.000000     12.000000
  0.375000  0.312500  0.000000     24.000000
  0.437500  0.312500  0.000000     24.000000
  0.500000  0.312500  0.000000     12.000000
  0.375000  0.375000  0.000000     12.000000
  0.437500  0.375000  0.000000     24.000000
  0.500000  0.375000  0.000000     12.000000
  0.437500  0.437500  0.000000     12.000000
  0.500000  0.437500  0.000000     12.000000
  0.500000  0.500000  0.000000      3.000000
  0.062500  0.062500  0.062500      8.000000
  0.125000  0.062500  0.062500     24.000000
  0.187500  0.062500  0.062500     24.000000
  0.250000  0.062500  0.062500     24.000000
  0.312500  0.062500  0.062500     24.000000
  0.375000  0.062500  0.062500     24.000000
  0.437500  0.062500  0.062500     24.000000
  0.500000  0.062500  0.062500     12.000000
  0.125000  0.125000  0.062500     24.000000
  0.187500  0.125000  0.062500     48.000000
  0.250000  0.125000  0.062500     48.000000
  0.312500  0.125000  0.062500     48.000000
  0.375000  0.125000  0.062500     48.000000
  0.437500  0.125000  0.062500     48.000000
  0.500000  0.125000  0.062500     24.000000
  0.187500  0.187500  0.062500     24.000000
  0.250000  0.187500  0.062500     48.000000
  0.312500  0.187500  0.062500     48.000000
  0.375000  0.187500  0.062500     48.000000
  0.437500  0.187500  0.062500     48.000000
  0.500000  0.187500  0.062500     24.000000
  0.250000  0.250000  0.062500     24.000000
  0.312500  0.250000  0.062500     48.000000
  0.375000  0.250000  0.062500     48.000000
  0.437500  0.250000  0.062500     48.000000
  0.500000  0.250000  0.062500     24.000000
  0.312500  0.312500  0.062500     24.000000
  0.375000  0.312500  0.062500     48.000000
  0.437500  0.312500  0.062500     48.000000
  0.500000  0.312500  0.062500     24.000000
  0.375000  0.375000  0.062500     24.000000
  0.437500  0.375000  0.062500     48.000000
  0.500000  0.375000  0.062500     24.000000
  0.437500  0.437500  0.062500     24.000000
  0.500000  0.437500  0.062500     24.000000
  0.500000  0.500000  0.062500      6.000000
  0.125000  0.125000  0.125000      8.000000
  0.187500  0.125000  0.125000     24.000000
  0.250000  0.125000  0.125000     24.000000
  0.312500  0.125000  0.125000     24.000000
  0.375000  0.125000  0.125000     24.000000
  0.437500  0.125000  0.125000     24.000000
  0.500000  0.125000  0.125000     12.000000
  0.187500  0.187500  0.125000     24.000000
  0.250000  0.187500  0.125000     48.000000
  0.312500  0.187500  0.125000     48.000000
  0.375000  0.187500  0.125000     48.000000
  0.437500  0.187500  0.125000     48.000000
  0.500000  0.187500  0.125000     24.000000
  0.250000  0.250000  0.125000     24.000000
  0.312500  0.250000  0.125000     48.000000
  0.375000  0.250000  0.125000     48.000000
  0.437500  0.250000  0.125000     48.000000
  0.500000  0.250000  0.125000     24.000000
  0.312500  0.312500  0.125000     24.000000
  0.375000  0.312500  0.125000     48.000000
  0.437500  0.312500  0.125000     48.000000
  0.500000  0.312500  0.125000     24.000000
  0.375000  0.375000  0.125000     24.000000
  0.437500  0.375000  0.125000     48.000000
  0.500000  0.375000  0.125000     24.000000
  0.437500  0.437500  0.125000     24.000000
  0.500000  0.437500  0.125000     24.000000
  0.500000  0.500000  0.125000      6.000000
  0.187500  0.187500  0.187500      8.000000
  0.250000  0.187500  0.187500     24.000000
  0.312500  0.187500  0.187500     24.000000
  0.375000  0.187500  0.187500     24.000000
  0.437500  0.187500  0.187500     24.000000
  0.500000  0.187500  0.187500     12.000000
  0.250000  0.250000  0.187500     24.000000
  0.312500  0.250000  0.187500     48.000000
  0.375000  0.250000  0.187500     48.000000
  0.437500  0.250000  0.187500     48.000000
  0.500000  0.250000  0.187500     24.000000
  0.312500  0.312500  0.187500     24.000000
  0.375000  0.312500  0.187500     48.000000
  0.437500  0.312500  0.187500     48.000000
  0.500000  0.312500  0.187500     24.000000
  0.375000  0.375000  0.187500     24.000000
  0.437500  0.375000  0.187500     48.000000
  0.500000  0.375000  0.187500     24.000000
  0.437500  0.437500  0.187500     24.000000
  0.500000  0.437500  0.187500     24.000000
  0.500000  0.500000  0.187500      6.000000
  0.250000  0.250000  0.250000      8.000000
  0.312500  0.250000  0.250000     24.000000
  0.375000  0.250000  0.250000     24.000000
  0.437500  0.250000  0.250000     24.000000
  0.500000  0.250000  0.250000     12.000000
  0.312500  0.312500  0.250000     24.000000
  0.375000  0.312500  0.250000     48.000000
  0.437500  0.312500  0.250000     48.000000
  0.500000  0.312500  0.250000     24.000000
  0.375000  0.375000  0.250000     24.000000
  0.437500  0.375000  0.250000     48.000000
  0.500000  0.375000  0.250000     24.000000
  0.437500  0.437500  0.250000     24.000000
  0.500000  0.437500  0.250000     24.000000
  0.500000  0.500000  0.250000      6.000000
  0.312500  0.312500  0.312500      8.000000
  0.375000  0.312500  0.312500     24.000000
  0.437500  0.312500  0.312500     24.000000
  0.500000  0.312500  0.312500     12.000000
  0.375000  0.375000  0.312500     24.000000
  0.437500  0.375000  0.312500     48.000000
  0.500000  0.375000  0.312500     24.000000
  0.437500  0.437500  0.312500     24.000000
  0.500000  0.437500  0.312500     24.000000
  0.500000  0.500000  0.312500      6.000000
  0.375000  0.375000  0.375000      8.000000
  0.437500  0.375000  0.375000     24.000000
  0.500000  0.375000  0.375000     12.000000
  0.437500  0.437500  0.375000     24.000000
  0.500000  0.437500  0.375000     24.000000
  0.500000  0.500000  0.375000      6.000000
  0.437500  0.437500  0.437500      8.000000
  0.500000  0.437500  0.437500     12.000000
  0.500000  0.500000  0.437500      6.000000
  0.500000  0.500000  0.500000      1.000000
 
 Following cartesian coordinates:
            Coordinates               Weight
  0.000000  0.000000  0.000000      1.000000
  0.015955  0.000000  0.000000      6.000000
  0.031910  0.000000  0.000000      6.000000
  0.047865  0.000000  0.000000      6.000000
  0.063819  0.000000  0.000000      6.000000
  0.079774  0.000000  0.000000      6.000000
  0.095729  0.000000  0.000000      6.000000
  0.111684  0.000000  0.000000      6.000000
  0.127639  0.000000  0.000000      3.000000
  0.015955  0.015955  0.000000     12.000000
  0.031910  0.015955  0.000000     24.000000
  0.047865  0.015955  0.000000     24.000000
  0.063819  0.015955  0.000000     24.000000
  0.079774  0.015955  0.000000     24.000000
  0.095729  0.015955  0.000000     24.000000
  0.111684  0.015955  0.000000     24.000000
  0.127639  0.015955  0.000000     12.000000
  0.031910  0.031910  0.000000     12.000000
  0.047865  0.031910  0.000000     24.000000
  0.063819  0.031910  0.000000     24.000000
  0.079774  0.031910  0.000000     24.000000
  0.095729  0.031910  0.000000     24.000000
  0.111684  0.031910  0.000000     24.000000
  0.127639  0.031910  0.000000     12.000000
  0.047865  0.047865  0.000000     12.000000
  0.063819  0.047865  0.000000     24.000000
  0.079774  0.047865  0.000000     24.000000
  0.095729  0.047865  0.000000     24.000000
  0.111684  0.047865  0.000000     24.000000
  0.127639  0.047865  0.000000     12.000000
  0.063819  0.063819  0.000000     12.000000
  0.079774  0.063819  0.000000     24.000000
  0.095729  0.063819  0.000000     24.000000
  0.111684  0.063819  0.000000     24.000000
  0.127639  0.063819  0.000000     12.000000
  0.079774  0.079774  0.000000     12.000000
  0.095729  0.079774  0.000000     24.000000
  0.111684  0.079774  0.000000     24.000000
  0.127639  0.079774  0.000000     12.000000
  0.095729  0.095729  0.000000     12.000000
  0.111684  0.095729  0.000000     24.000000
  0.127639  0.095729  0.000000     12.000000
  0.111684  0.111684  0.000000     12.000000
  0.127639  0.111684  0.000000     12.000000
  0.127639  0.127639  0.000000      3.000000
  0.015955  0.015955  0.015955      8.000000
  0.031910  0.015955  0.015955     24.000000
  0.047865  0.015955  0.015955     24.000000
  0.063819  0.015955  0.015955     24.000000
  0.079774  0.015955  0.015955     24.000000
  0.095729  0.015955  0.015955     24.000000
  0.111684  0.015955  0.015955     24.000000
  0.127639  0.015955  0.015955     12.000000
  0.031910  0.031910  0.015955     24.000000
  0.047865  0.031910  0.015955     48.000000
  0.063819  0.031910  0.015955     48.000000
  0.079774  0.031910  0.015955     48.000000
  0.095729  0.031910  0.015955     48.000000
  0.111684  0.031910  0.015955     48.000000
  0.127639  0.031910  0.015955     24.000000
  0.047865  0.047865  0.015955     24.000000
  0.063819  0.047865  0.015955     48.000000
  0.079774  0.047865  0.015955     48.000000
  0.095729  0.047865  0.015955     48.000000
  0.111684  0.047865  0.015955     48.000000
  0.127639  0.047865  0.015955     24.000000
  0.063819  0.063819  0.015955     24.000000
  0.079774  0.063819  0.015955     48.000000
  0.095729  0.063819  0.015955     48.000000
  0.111684  0.063819  0.015955     48.000000
  0.127639  0.063819  0.015955     24.000000
  0.079774  0.079774  0.015955     24.000000
  0.095729  0.079774  0.015955     48.000000
  0.111684  0.079774  0.015955     48.000000
  0.127639  0.079774  0.015955     24.000000
  0.095729  0.095729  0.015955     24.000000
  0.111684  0.095729  0.015955     48.000000
  0.127639  0.095729  0.015955     24.000000
  0.111684  0.111684  0.015955     24.000000
  0.127639  0.111684  0.015955     24.000000
  0.127639  0.127639  0.015955      6.000000
  0.031910  0.031910  0.031910      8.000000
  0.047865  0.031910  0.031910     24.000000
  0.063819  0.031910  0.031910     24.000000
  0.079774  0.031910  0.031910     24.000000
  0.095729  0.031910  0.031910     24.000000
  0.111684  0.031910  0.031910     24.000000
  0.127639  0.031910  0.031910     12.000000
  0.047865  0.047865  0.031910     24.000000
  0.063819  0.047865  0.031910     48.000000
  0.079774  0.047865  0.031910     48.000000
  0.095729  0.047865  0.031910     48.000000
  0.111684  0.047865  0.031910     48.000000
  0.127639  0.047865  0.031910     24.000000
  0.063819  0.063819  0.031910     24.000000
  0.079774  0.063819  0.031910     48.000000
  0.095729  0.063819  0.031910     48.000000
  0.111684  0.063819  0.031910     48.000000
  0.127639  0.063819  0.031910     24.000000
  0.079774  0.079774  0.031910     24.000000
  0.095729  0.079774  0.031910     48.000000
  0.111684  0.079774  0.031910     48.000000
  0.127639  0.079774  0.031910     24.000000
  0.095729  0.095729  0.031910     24.000000
  0.111684  0.095729  0.031910     48.000000
  0.127639  0.095729  0.031910     24.000000
  0.111684  0.111684  0.031910     24.000000
  0.127639  0.111684  0.031910     24.000000
  0.127639  0.127639  0.031910      6.000000
  0.047865  0.047865  0.047865      8.000000
  0.063819  0.047865  0.047865     24.000000
  0.079774  0.047865  0.047865     24.000000
  0.095729  0.047865  0.047865     24.000000
  0.111684  0.047865  0.047865     24.000000
  0.127639  0.047865  0.047865     12.000000
  0.063819  0.063819  0.047865     24.000000
  0.079774  0.063819  0.047865     48.000000
  0.095729  0.063819  0.047865     48.000000
  0.111684  0.063819  0.047865     48.000000
  0.127639  0.063819  0.047865     24.000000
  0.079774  0.079774  0.047865     24.000000
  0.095729  0.079774  0.047865     48.000000
  0.111684  0.079774  0.047865     48.000000
  0.127639  0.079774  0.047865     24.000000
  0.095729  0.095729  0.047865     24.000000
  0.111684  0.095729  0.047865     48.000000
  0.127639  0.095729  0.047865     24.000000
  0.111684  0.111684  0.047865     24.000000
  0.127639  0.111684  0.047865     24.000000
  0.127639  0.127639  0.047865      6.000000
  0.063819  0.063819  0.063819      8.000000
  0.079774  0.063819  0.063819     24.000000
  0.095729  0.063819  0.063819     24.000000
  0.111684  0.063819  0.063819     24.000000
  0.127639  0.063819  0.063819     12.000000
  0.079774  0.079774  0.063819     24.000000
  0.095729  0.079774  0.063819     48.000000
  0.111684  0.079774  0.063819     48.000000
  0.127639  0.079774  0.063819     24.000000
  0.095729  0.095729  0.063819     24.000000
  0.111684  0.095729  0.063819     48.000000
  0.127639  0.095729  0.063819     24.000000
  0.111684  0.111684  0.063819     24.000000
  0.127639  0.111684  0.063819     24.000000
  0.127639  0.127639  0.063819      6.000000
  0.079774  0.079774  0.079774      8.000000
  0.095729  0.079774  0.079774     24.000000
  0.111684  0.079774  0.079774     24.000000
  0.127639  0.079774  0.079774     12.000000
  0.095729  0.095729  0.079774     24.000000
  0.111684  0.095729  0.079774     48.000000
  0.127639  0.095729  0.079774     24.000000
  0.111684  0.111684  0.079774     24.000000
  0.127639  0.111684  0.079774     24.000000
  0.127639  0.127639  0.079774      6.000000
  0.095729  0.095729  0.095729      8.000000
  0.111684  0.095729  0.095729     24.000000
  0.127639  0.095729  0.095729     12.000000
  0.111684  0.111684  0.095729     24.000000
  0.127639  0.111684  0.095729     24.000000
  0.127639  0.127639  0.095729      6.000000
  0.111684  0.111684  0.111684      8.000000
  0.127639  0.111684  0.111684     12.000000
  0.127639  0.127639  0.111684      6.000000
  0.127639  0.127639  0.127639      1.000000
 


--------------------------------------------------------------------------------------------------------




 Dimension of arrays:
   k-points           NKPTS =    165   k-points in BZ     NKDIM =    165   number of bands    NBANDS=     40
   number of dos      NEDOS =    301   number of ions     NIONS =      4
   non local maximal  LDIM  =      6   non local SUM 2l+1 LMDIM =     18
   total plane-waves  NPLWV =  27000
   max r-space proj   IRMAX =      1   max aug-charges    IRDMAX= 144038
   dimension x,y,z NGX =    30 NGY =   30 NGZ =   30
   dimension x,y,z NGXF=    60 NGYF=   60 NGZF=   60
   support grid    NGXF=   120 NGYF=  120 NGZF=  120
   ions per type =               4
   NGX,Y,Z   is equivalent  to a cutoff of  12.73, 12.73, 12.73 a.u.
   NGXF,Y,Z  is equivalent  to a cutoff of  25.46, 25.46, 25.46 a.u.

 SYSTEM =  pddmc                                   
 POSCAR =  Pd                                      

 Startparameter for this run:
   NWRITE =      2    write-flag & timer
   PREC   = accura    normal or accurate (medium, high low for compatibility)
   ISTART =      0    job   : 0-new  1-cont  2-samecut
   ICHARG =      2    charge: 1-file 2-atom 10-const
   ISPIN  =      2    spin polarized calculation?
   LNONCOLLINEAR =      F non collinear calculations
   LSORBIT =      F    spin-orbit coupling
   INIWAV =      1    electr: 0-lowe 1-rand  2-diag
   LASPH  =      T    aspherical Exc in radial PAW
 Electronic Relaxation 1
   ENCUT  =  520.0 eV  38.22 Ry    6.18 a.u.   7.28  7.28  7.28*2*pi/ulx,y,z
   ENINI  =  520.0     initial cutoff
   ENAUG  =  473.1 eV  augmentation charge cutoff
   NELM   =    200;   NELMIN=  5; NELMDL= -5     # of ELM steps 
   EDIFF  = 0.1E-05   stopping-criterion for ELM
   LREAL  =      F    real-space projection
   NLSPLINE    = F    spline interpolate recip. space projectors
   LCOMPAT=      F    compatible to vasp.4.4
   GGA_COMPAT  = T    GGA compatible to vasp.4.4-vasp.4.6
   LMAXPAW     = -100 max onsite density
   LMAXMIX     =    2 max onsite mixed and CHGCAR
   VOSKOWN=      0    Vosko Wilk Nusair interpolation
   ROPT   =    0.00000
 Ionic relaxation
   EDIFFG = -.1E-01   stopping-criterion for IOM
   NSW    =      0    number of steps for IOM
   NBLOCK =      1;   KBLOCK =      1    inner block; outer block 
   IBRION =     -1    ionic relax: 0-MD 1-quasi-New 2-CG
   NFREE  =      0    steps in history (QN), initial steepest desc. (CG)
   ISIF   =      0    stress and relaxation
   IWAVPR =     10    prediction:  0-non 1-charg 2-wave 3-comb
   ISYM   =      2    0-nonsym 1-usesym 2-fastsym
   LCORR  =      T    Harris-Foulkes like correction to forces

   POTIM  = 0.5000    time-step for ionic-motion
   TEIN   =    0.0    initial temperature
   TEBEG  =    0.0;   TEEND  =   0.0 temperature during run
   SMASS  =  -3.00    Nose mass-parameter (am)
   estimated Nose-frequenzy (Omega)   =  0.10E-29 period in steps = 0.13E+47 mass=  -0.351E-27a.u.
   SCALEE = 1.0000    scale energy and forces
   NPACO  =    256;   APACO  = 10.0  distance and # of slots for P.C.
   PSTRESS=    0.0 pullay stress

  Mass of Ions in am
   POMASS = 106.42
  Ionic Valenz
   ZVAL   =  16.00
  Atomic Wigner-Seitz radii
   RWIGS  =  -1.00
  virtual crystal weights 
   VCA    =   1.00
   NELECT =      64.0000    total number of electrons
   NUPDOWN=      -1.0000    fix difference up-down

 DOS related values:
   EMIN   =  10.00;   EMAX   =-10.00  energy-range for DOS
   EFERMI =   0.00;   METHOD = LEGACY      
   ISMEAR =     1;   SIGMA  =   0.10  broadening in eV -4-tet -1-fermi 0-gaus

 Electronic relaxation 2 (details)
   IALGO  =     38    algorithm
   LDIAG  =      T    sub-space diagonalisation (order eigenvalues)
   LSUBROT=      F    optimize rotation matrix (better conditioning)
   TURBO    =      0    0=normal 1=particle mesh
   IRESTART =      0    0=no restart 2=restart with 2 vectors
   NREBOOT  =      0    no. of reboots
   NMIN     =      0    reboot dimension
   EREF     =   0.00    reference energy to select bands
   IMIX   =      4    mixing-type and parameters
     AMIX     =   0.40;   BMIX     =  1.00
     AMIX_MAG =   1.60;   BMIX_MAG =  1.00
     AMIN     =   0.10
     WC   =   100.;   INIMIX=   1;  MIXPRE=   1;  MAXMIX= -45

 Intra band minimization:
   WEIMIN = 0.0000     energy-eigenvalue tresh-hold
   EBREAK =  0.62E-08  absolut break condition
   DEPER  =   0.30     relativ break condition  

   TIME   =   0.40     timestep for ELM

  volume/ion in A,a.u.               =      15.03       101.41
  Fermi-wavevector in a.u.,A,eV,Ry     =   1.671659  3.158978 38.020738  2.794445
  Thomas-Fermi vector in A             =   2.756943
 
 Write flags
   LWAVE        =      F    write WAVECAR
   LDOWNSAMPLE  =      F    k-point downsampling of WAVECAR
   LCHARG       =      F    write CHGCAR
   LVTOT        =      F    write LOCPOT, total local potential
   LVHAR        =      F    write LOCPOT, Hartree potential only
   WRT_POTENTIAL= false  ! write potential to hdf5 file
   LELF         =      F    write electronic localiz. function (ELF)
   LORBIT       =     11    0 simple, 1 ext, 2 COOP (PROOUT), +10 PAW based schemes


 Dipole corrections
   LMONO      =      F    monopole corrections only (constant potential shift)
   LDIPOL     =      F    correct potential (dipole corrections)
   IDIPOL     =      0    1-x, 2-y, 3-z, 4-all directions 
   EPSILON    =  1.0000000 bulk dielectric constant
   LVACPOTAV  =      F  vacuum potentials using an averaging scheme for the charge density
   VACPOTFLAT =  0.1000000 required flatness to determine vacuum potential
 Exchange correlation treatment:
   GGA     = PE    functional components
   XC_C    = 1    coefficients multiplying the functional components
   LIBXC   =     F    Libxc                    
   VOSKOWN =     0    Vosko Wilk Nusair interpolation
   LHFCALC =     F    Hartree Fock is set to
   LHFONE  =     F    Hartree Fock one center treatment
   AEXX    =    0.0000 exact exchange contribution

 Parameters of functionals:
   PE:
     No parameter
 
 Van der Waals corrections
   IVDW    =    12    specifies the selected vdW correction

 Linear response parameters
   LEPSILON=     F    determine dielectric tensor
   LRPA    =     F    only Hartree local field effects (RPA)
   LNABLA  =     F    use nabla operator in PAW spheres
   LVEL    =     F    velocity operator in full k-point grid
   CSHIFT  =0.1000    complex shift for real part using Kramers Kronig
   OMEGAMAX=  -1.0    maximum frequency
   DEG_THRESHOLD= 0.2000000E-02 threshold for treating states as degnerate
   RTIME   =   -0.100 relaxation time in fs
  (WPLASMAI=    0.000 imaginary part of plasma frequency in eV, 0.658/RTIME)
   DFIELD  = 0.0000000 0.0000000 0.0000000 field for delta impulse in time
 
  Optional k-point grid parameters
   LKPOINTS_OPT  =     F    use optional k-point grid
   KPOINTS_OPT_MODE=     1    mode for optional k-point grid
 
 Orbital magnetization related:
   ORBITALMAG=     F  switch on orbital magnetization
   LCHIMAG   =     F  perturbation theory with respect to B field
   DQ        =  0.001000  dq finite difference perturbation B field
   LLRAUG    =     F  two centre corrections for induced B field
   LBONE     =     F  B-component reconstruction in AE one-centre
   LVGVCALC  =     T  calculate vGv susceptibility
   LVGVAPPL  =     F  apply vGv susceptibility instead of pGv for G=0

 Random number generation:
   RANDOM_GENERATOR = DEFAULT
   PCG_SEED         = not used


--------------------------------------------------------------------------------------------------------


 Static calculation
 charge density and potential will be updated during run
 spin polarized calculation
 Variant of blocked Davidson
 Davidson routine will perform the subspace rotation
 perform sub-space diagonalisation
    after iterative eigenvector-optimisation
 modified Broyden-mixing scheme, WC =      100.0
 initial mixing is a Kerker type mixing with AMIX =  0.4000 and BMIX =      1.0000
 Hartree-type preconditioning will be used
 using additional bands             8
 reciprocal scheme for non local part
 use partial core corrections
 calculate Harris-corrections to forces 
   (improved forces if not selfconsistent)
 use gradient corrections 
 use of overlap-Matrix (Vanderbilt PP)
 Methfessel and Paxton  Order N= 1 SIGMA  =   0.10


--------------------------------------------------------------------------------------------------------


  energy-cutoff  :      520.00
  volume of cell :       60.11
      direct lattice vectors                 reciprocal lattice vectors
     3.917301575  0.000000000  0.000000000     0.255277767 -0.000000000  0.000000000
     0.000000000  3.917301575  0.000000000     0.000000000  0.255277767  0.000000000
     0.000000000  0.000000000  3.917301575    -0.000000000 -0.000000000  0.255277767

  length of vectors
     3.917301575  3.917301575  3.917301575     0.255277767  0.255277767  0.255277767


 
 k-points in units of 2pi/SCALE and weight: Automatic mesh                          
   0.00000000  0.00000000  0.00000000       0.000
   0.01595486  0.00000000  0.00000000       0.001
   0.03190972  0.00000000  0.00000000       0.001
   0.04786458  0.00000000  0.00000000       0.001
   0.06381944  0.00000000  0.00000000       0.001
   0.07977430  0.00000000  0.00000000       0.001
   0.09572916  0.00000000  0.00000000       0.001
   0.11168402  0.00000000  0.00000000       0.001
   0.12763888  0.00000000  0.00000000       0.001
   0.01595486  0.01595486  0.00000000       0.003
   0.03190972  0.01595486  0.00000000       0.006
   0.04786458  0.01595486  0.00000000       0.006
   0.06381944  0.01595486  0.00000000       0.006
   0.07977430  0.01595486  0.00000000       0.006
   0.09572916  0.01595486  0.00000000       0.006
   0.11168402  0.01595486  0.00000000       0.006
   0.12763888  0.01595486  0.00000000       0.003
   0.03190972  0.03190972  0.00000000       0.003
   0.04786458  0.03190972  0.00000000       0.006
   0.06381944  0.03190972  0.00000000       0.006
   0.07977430  0.03190972  0.00000000       0.006
   0.09572916  0.03190972  0.00000000       0.006
   0.11168402  0.03190972  0.00000000       0.006
   0.12763888  0.03190972  0.00000000       0.003
   0.04786458  0.04786458  0.00000000       0.003
   0.06381944  0.04786458  0.00000000       0.006
   0.07977430  0.04786458  0.00000000       0.006
   0.09572916  0.04786458  0.00000000       0.006
   0.11168402  0.04786458  0.00000000       0.006
   0.12763888  0.04786458  0.00000000       0.003
   0.06381944  0.06381944  0.00000000       0.003
   0.07977430  0.06381944  0.00000000       0.006
   0.09572916  0.06381944  0.00000000       0.006
   0.11168402  0.06381944  0.00000000       0.006
   0.12763888  0.06381944  0.00000000       0.003
   0.07977430  0.07977430  0.00000000       0.003
   0.09572916  0.07977430  0.00000000       0.006
   0.11168402  0.07977430  0.00000000       0.006
   0.12763888  0.07977430  0.00000000       0.003
   0.09572916  0.09572916  0.00000000       0.003
   0.11168402  0.09572916  0.00000000       0.006
   0.12763888  0.09572916  0.00000000       0.003
   0.11168402  0.11168402  0.00000000       0.003
   0.12763888  0.11168402  0.00000000       0.003
   0.12763888  0.12763888  0.00000000       0.001
   0.01595486  0.01595486  0.01595486       0.002
   0.03190972  0.01595486  0.01595486       0.006
   0.04786458  0.01595486  0.01595486       0.006
   0.06381944  0.01595486  0.01595486       0.006
   0.07977430  0.01595486  0.01595486       0.006
   0.09572916  0.01595486  0.01595486       0.006
   0.11168402  0.01595486  0.01595486       0.006
   0.12763888  0.01595486  0.01595486       0.003
   0.03190972  0.03190972  0.01595486       0.006
   0.04786458  0.03190972  0.01595486       0.012
   0.06381944  0.03190972  0.01595486       0.012
   0.07977430  0.03190972  0.01595486       0.012
   0.09572916  0.03190972  0.01595486       0.012
   0.11168402  0.03190972  0.01595486       0.012
   0.12763888  0.03190972  0.01595486       0.006
   0.04786458  0.04786458  0.01595486       0.006
   0.06381944  0.04786458  0.01595486       0.012
   0.07977430  0.04786458  0.01595486       0.012
   0.09572916  0.04786458  0.01595486       0.012
   0.11168402  0.04786458  0.01595486       0.012
   0.12763888  0.04786458  0.01595486       0.006
   0.06381944  0.06381944  0.01595486       0.006
   0.07977430  0.06381944  0.01595486       0.012
   0.09572916  0.06381944  0.01595486       0.012
   0.11168402  0.06381944  0.01595486       0.012
   0.12763888  0.06381944  0.01595486       0.006
   0.07977430  0.07977430  0.01595486       0.006
   0.09572916  0.07977430  0.01595486       0.012
   0.11168402  0.07977430  0.01595486       0.012
   0.12763888  0.07977430  0.01595486       0.006
   0.09572916  0.09572916  0.01595486       0.006
   0.11168402  0.09572916  0.01595486       0.012
   0.12763888  0.09572916  0.01595486       0.006
   0.11168402  0.11168402  0.01595486       0.006
   0.12763888  0.11168402  0.01595486       0.006
   0.12763888  0.12763888  0.01595486       0.001
   0.03190972  0.03190972  0.03190972       0.002
   0.04786458  0.03190972  0.03190972       0.006
   0.06381944  0.03190972  0.03190972       0.006
   0.07977430  0.03190972  0.03190972       0.006
   0.09572916  0.03190972  0.03190972       0.006
   0.11168402  0.03190972  0.03190972       0.006
   0.12763888  0.03190972  0.03190972       0.003
   0.04786458  0.04786458  0.03190972       0.006
   0.06381944  0.04786458  0.03190972       0.012
   0.07977430  0.04786458  0.03190972       0.012
   0.09572916  0.04786458  0.03190972       0.012
   0.11168402  0.04786458  0.03190972       0.012
   0.12763888  0.04786458  0.03190972       0.006
   0.06381944  0.06381944  0.03190972       0.006
   0.07977430  0.06381944  0.03190972       0.012
   0.09572916  0.06381944  0.03190972       0.012
   0.11168402  0.06381944  0.03190972       0.012
   0.12763888  0.06381944  0.03190972       0.006
   0.07977430  0.07977430  0.03190972       0.006
   0.09572916  0.07977430  0.03190972       0.012
   0.11168402  0.07977430  0.03190972       0.012
   0.12763888  0.07977430  0.03190972       0.006
   0.09572916  0.09572916  0.03190972       0.006
   0.11168402  0.09572916  0.03190972       0.012
   0.12763888  0.09572916  0.03190972       0.006
   0.11168402  0.11168402  0.03190972       0.006
   0.12763888  0.11168402  0.03190972       0.006
   0.12763888  0.12763888  0.03190972       0.001
   0.04786458  0.04786458  0.04786458       0.002
   0.06381944  0.04786458  0.04786458       0.006
   0.07977430  0.04786458  0.04786458       0.006
   0.09572916  0.04786458  0.04786458       0.006
   0.11168402  0.04786458  0.04786458       0.006
   0.12763888  0.04786458  0.04786458       0.003
   0.06381944  0.06381944  0.04786458       0.006
   0.07977430  0.06381944  0.04786458       0.012
   0.09572916  0.06381944  0.04786458       0.012
   0.11168402  0.06381944  0.04786458       0.012
   0.12763888  0.06381944  0.04786458       0.006
   0.07977430  0.07977430  0.04786458       0.006
   0.09572916  0.07977430  0.04786458       0.012
   0.11168402  0.07977430  0.04786458       0.012
   0.12763888  0.07977430  0.04786458       0.006
   0.09572916  0.09572916  0.04786458       0.006
   0.11168402  0.09572916  0.04786458       0.012
   0.12763888  0.09572916  0.04786458       0.006
   0.11168402  0.11168402  0.04786458       0.006
   0.12763888  0.11168402  0.04786458       0.006
   0.12763888  0.12763888  0.04786458       0.001
   0.06381944  0.06381944  0.06381944       0.002
   0.07977430  0.06381944  0.06381944       0.006
   0.09572916  0.06381944  0.06381944       0.006
   0.11168402  0.06381944  0.06381944       0.006
   0.12763888  0.06381944  0.06381944       0.003
   0.07977430  0.07977430  0.06381944       0.006
   0.09572916  0.07977430  0.06381944       0.012
   0.11168402  0.07977430  0.06381944       0.012
   0.12763888  0.07977430  0.06381944       0.006
   0.09572916  0.09572916  0.06381944       0.006
   0.11168402  0.09572916  0.06381944       0.012
   0.12763888  0.09572916  0.06381944       0.006
   0.11168402  0.11168402  0.06381944       0.006
   0.12763888  0.11168402  0.06381944       0.006
   0.12763888  0.12763888  0.06381944       0.001
   0.07977430  0.07977430  0.07977430       0.002
   0.09572916  0.07977430  0.07977430       0.006
   0.11168402  0.07977430  0.07977430       0.006
   0.12763888  0.07977430  0.07977430       0.003
   0.09572916  0.09572916  0.07977430       0.006
   0.11168402  0.09572916  0.07977430       0.012
   0.12763888  0.09572916  0.07977430       0.006
   0.11168402  0.11168402  0.07977430       0.006
   0.12763888  0.11168402  0.07977430       0.006
   0.12763888  0.12763888  0.07977430       0.001
   0.09572916  0.09572916  0.09572916       0.002
   0.11168402  0.09572916  0.09572916       0.006
   0.12763888  0.09572916  0.09572916       0.003
   0.11168402  0.11168402  0.09572916       0.006
   0.12763888  0.11168402  0.09572916       0.006
   0.12763888  0.12763888  0.09572916       0.001
   0.11168402  0.11168402  0.11168402       0.002
   0.12763888  0.11168402  0.11168402       0.003
   0.12763888  0.12763888  0.11168402       0.001
   0.12763888  0.12763888  0.12763888       0.000
 
 k-points in reciprocal lattice and weights: Automatic mesh                          
   0.00000000  0.00000000  0.00000000       0.000
   0.06250000  0.00000000  0.00000000       0.001
   0.12500000  0.00000000  0.00000000       0.001
   0.18750000  0.00000000  0.00000000       0.001
   0.25000000  0.00000000  0.00000000       0.001
   0.31250000  0.00000000  0.00000000       0.001
   0.37500000  0.00000000  0.00000000       0.001
   0.43750000  0.00000000  0.00000000       0.001
   0.50000000  0.00000000  0.00000000       0.001
   0.06250000  0.06250000  0.00000000       0.003
   0.12500000  0.06250000  0.00000000       0.006
   0.18750000  0.06250000  0.00000000       0.006
   0.25000000  0.06250000  0.00000000       0.006
   0.31250000  0.06250000  0.00000000       0.006
   0.37500000  0.06250000  0.00000000       0.006
   0.43750000  0.06250000  0.00000000       0.006
   0.50000000  0.06250000  0.00000000       0.003
   0.12500000  0.12500000  0.00000000       0.003
   0.18750000  0.12500000  0.00000000       0.006
   0.25000000  0.12500000  0.00000000       0.006
   0.31250000  0.12500000  0.00000000       0.006
   0.37500000  0.12500000  0.00000000       0.006
   0.43750000  0.12500000  0.00000000       0.006
   0.50000000  0.12500000  0.00000000       0.003
   0.18750000  0.18750000  0.00000000       0.003
   0.25000000  0.18750000  0.00000000       0.006
   0.31250000  0.18750000  0.00000000       0.006
   0.37500000  0.18750000  0.00000000       0.006
   0.43750000  0.18750000  0.00000000       0.006
   0.50000000  0.18750000  0.00000000       0.003
   0.25000000  0.25000000  0.00000000       0.003
   0.31250000  0.25000000  0.00000000       0.006
   0.37500000  0.25000000  0.00000000       0.006
   0.43750000  0.25000000  0.00000000       0.006
   0.50000000  0.25000000  0.00000000       0.003
   0.31250000  0.31250000  0.00000000       0.003
   0.37500000  0.31250000  0.00000000       0.006
   0.43750000  0.31250000  0.00000000       0.006
   0.50000000  0.31250000  0.00000000       0.003
   0.37500000  0.37500000  0.00000000       0.003
   0.43750000  0.37500000  0.00000000       0.006
   0.50000000  0.37500000  0.00000000       0.003
   0.43750000  0.43750000  0.00000000       0.003
   0.50000000  0.43750000  0.00000000       0.003
   0.50000000  0.50000000  0.00000000       0.001
   0.06250000  0.06250000  0.06250000       0.002
   0.12500000  0.06250000  0.06250000       0.006
   0.18750000  0.06250000  0.06250000       0.006
   0.25000000  0.06250000  0.06250000       0.006
   0.31250000  0.06250000  0.06250000       0.006
   0.37500000  0.06250000  0.06250000       0.006
   0.43750000  0.06250000  0.06250000       0.006
   0.50000000  0.06250000  0.06250000       0.003
   0.12500000  0.12500000  0.06250000       0.006
   0.18750000  0.12500000  0.06250000       0.012
   0.25000000  0.12500000  0.06250000       0.012
   0.31250000  0.12500000  0.06250000       0.012
   0.37500000  0.12500000  0.06250000       0.012
   0.43750000  0.12500000  0.06250000       0.012
   0.50000000  0.12500000  0.06250000       0.006
   0.18750000  0.18750000  0.06250000       0.006
   0.25000000  0.18750000  0.06250000       0.012
   0.31250000  0.18750000  0.06250000       0.012
   0.37500000  0.18750000  0.06250000       0.012
   0.43750000  0.18750000  0.06250000       0.012
   0.50000000  0.18750000  0.06250000       0.006
   0.25000000  0.25000000  0.06250000       0.006
   0.31250000  0.25000000  0.06250000       0.012
   0.37500000  0.25000000  0.06250000       0.012
   0.43750000  0.25000000  0.06250000       0.012
   0.50000000  0.25000000  0.06250000       0.006
   0.31250000  0.31250000  0.06250000       0.006
   0.37500000  0.31250000  0.06250000       0.012
   0.43750000  0.31250000  0.06250000       0.012
   0.50000000  0.31250000  0.06250000       0.006
   0.37500000  0.37500000  0.06250000       0.006
   0.43750000  0.37500000  0.06250000       0.012
   0.50000000  0.37500000  0.06250000       0.006
   0.43750000  0.43750000  0.06250000       0.006
   0.50000000  0.43750000  0.06250000       0.006
   0.50000000  0.50000000  0.06250000       0.001
   0.12500000  0.12500000  0.12500000       0.002
   0.18750000  0.12500000  0.12500000       0.006
   0.25000000  0.12500000  0.12500000       0.006
   0.31250000  0.12500000  0.12500000       0.006
   0.37500000  0.12500000  0.12500000       0.006
   0.43750000  0.12500000  0.12500000       0.006
   0.50000000  0.12500000  0.12500000       0.003
   0.18750000  0.18750000  0.12500000       0.006
   0.25000000  0.18750000  0.12500000       0.012
   0.31250000  0.18750000  0.12500000       0.012
   0.37500000  0.18750000  0.12500000       0.012
   0.43750000  0.18750000  0.12500000       0.012
   0.50000000  0.18750000  0.12500000       0.006
   0.25000000  0.25000000  0.12500000       0.006
   0.31250000  0.25000000  0.12500000       0.012
   0.37500000  0.25000000  0.12500000       0.012
   0.43750000  0.25000000  0.12500000       0.012
   0.50000000  0.25000000  0.12500000       0.006
   0.31250000  0.31250000  0.12500000       0.006
   0.37500000  0.31250000  0.12500000       0.012
   0.43750000  0.31250000  0.12500000       0.012
   0.50000000  0.31250000  0.12500000       0.006
   0.37500000  0.37500000  0.12500000       0.006
   0.43750000  0.37500000  0.12500000       0.012
   0.50000000  0.37500000  0.12500000       0.006
   0.43750000  0.43750000  0.12500000       0.006
   0.50000000  0.43750000  0.12500000       0.006
   0.50000000  0.50000000  0.12500000       0.001
   0.18750000  0.18750000  0.18750000       0.002
   0.25000000  0.18750000  0.18750000       0.006
   0.31250000  0.18750000  0.18750000       0.006
   0.37500000  0.18750000  0.18750000       0.006
   0.43750000  0.18750000  0.18750000       0.006
   0.50000000  0.18750000  0.18750000       0.003
   0.25000000  0.25000000  0.18750000       0.006
   0.31250000  0.25000000  0.18750000       0.012
   0.37500000  0.25000000  0.18750000       0.012
   0.43750000  0.25000000  0.18750000       0.012
   0.50000000  0.25000000  0.18750000       0.006
   0.31250000  0.31250000  0.18750000       0.006
   0.37500000  0.31250000  0.18750000       0.012
   0.43750000  0.31250000  0.18750000       0.012
   0.50000000  0.31250000  0.18750000       0.006
   0.37500000  0.37500000  0.18750000       0.006
   0.43750000  0.37500000  0.18750000       0.012
   0.50000000  0.37500000  0.18750000       0.006
   0.43750000  0.43750000  0.18750000       0.006
   0.50000000  0.43750000  0.18750000       0.006
   0.50000000  0.50000000  0.18750000       0.001
   0.25000000  0.25000000  0.25000000       0.002
   0.31250000  0.25000000  0.25000000       0.006
   0.37500000  0.25000000  0.25000000       0.006
   0.43750000  0.25000000  0.25000000       0.006
   0.50000000  0.25000000  0.25000000       0.003
   0.31250000  0.31250000  0.25000000       0.006
   0.37500000  0.31250000  0.25000000       0.012
   0.43750000  0.31250000  0.25000000       0.012
   0.50000000  0.31250000  0.25000000       0.006
   0.37500000  0.37500000  0.25000000       0.006
   0.43750000  0.37500000  0.25000000       0.012
   0.50000000  0.37500000  0.25000000       0.006
   0.43750000  0.43750000  0.25000000       0.006
   0.50000000  0.43750000  0.25000000       0.006
   0.50000000  0.50000000  0.25000000       0.001
   0.31250000  0.31250000  0.31250000       0.002
   0.37500000  0.31250000  0.31250000       0.006
   0.43750000  0.31250000  0.31250000       0.006
   0.50000000  0.31250000  0.31250000       0.003
   0.37500000  0.37500000  0.31250000       0.006
   0.43750000  0.37500000  0.31250000       0.012
   0.50000000  0.37500000  0.31250000       0.006
   0.43750000  0.43750000  0.31250000       0.006
   0.50000000  0.43750000  0.31250000       0.006
   0.50000000  0.50000000  0.31250000       0.001
   0.37500000  0.37500000  0.37500000       0.002
   0.43750000  0.37500000  0.37500000       0.006
   0.50000000  0.37500000  0.37500000       0.003
   0.43750000  0.43750000  0.37500000       0.006
   0.50000000  0.43750000  0.37500000       0.006
   0.50000000  0.50000000  0.37500000       0.001
   0.43750000  0.43750000  0.43750000       0.002
   0.50000000  0.43750000  0.43750000       0.003
   0.50000000  0.50000000  0.43750000       0.001
   0.50000000  0.50000000  0.50000000       0.000
 
 position of ions in fractional coordinates (direct lattice) 
   0.00000000  0.00000000  0.00000000
   0.00000000  0.50000000  0.50000000
   0.50000000  0.00000000  0.50000000
   0.50000000  0.50000000  0.00000000
 
 position of ions in cartesian coordinates  (Angst):
   0.00000000  0.00000000  0.00000000
   0.00000000  1.95865079  1.95865079
   1.95865079  0.00000000  1.95865079
   1.95865079  1.95865079  0.00000000
 


--------------------------------------------------------------------------------------------------------


 k-point     1 :   0.0000 0.0000 0.0000  plane waves:    1647
 k-point     2 :   0.0625 0.0000 0.0000  plane waves:    1615
 k-point     3 :   0.1250 0.0000 0.0000  plane waves:    1631
 k-point     4 :   0.1875 0.0000 0.0000  plane waves:    1631
 k-point     5 :   0.2500 0.0000 0.0000  plane waves:    1611
 k-point     6 :   0.3125 0.0000 0.0000  plane waves:    1622
 k-point     7 :   0.3750 0.0000 0.0000  plane waves:    1610
 k-point     8 :   0.4375 0.0000 0.0000  plane waves:    1622
 k-point     9 :   0.5000 0.0000 0.0000  plane waves:    1622
 k-point    10 :   0.0625 0.0625 0.0000  plane waves:    1623
 k-point    11 :   0.1250 0.0625 0.0000  plane waves:    1635
 k-point    12 :   0.1875 0.0625 0.0000  plane waves:    1628
 k-point    13 :   0.2500 0.0625 0.0000  plane waves:    1622
 k-point    14 :   0.3125 0.0625 0.0000  plane waves:    1625
 k-point    15 :   0.3750 0.0625 0.0000  plane waves:    1619
 k-point    16 :   0.4375 0.0625 0.0000  plane waves:    1618
 k-point    17 :   0.5000 0.0625 0.0000  plane waves:    1634
 k-point    18 :   0.1250 0.1250 0.0000  plane waves:    1631
 k-point    19 :   0.1875 0.1250 0.0000  plane waves:    1619
 k-point    20 :   0.2500 0.1250 0.0000  plane waves:    1617
 k-point    21 :   0.3125 0.1250 0.0000  plane waves:    1616
 k-point    22 :   0.3750 0.1250 0.0000  plane waves:    1616
 k-point    23 :   0.4375 0.1250 0.0000  plane waves:    1615
 k-point    24 :   0.5000 0.1250 0.0000  plane waves:    1622
 k-point    25 :   0.1875 0.1875 0.0000  plane waves:    1620
 k-point    26 :   0.2500 0.1875 0.0000  plane waves:    1610
 k-point    27 :   0.3125 0.1875 0.0000  plane waves:    1612
 k-point    28 :   0.3750 0.1875 0.0000  plane waves:    1618
 k-point    29 :   0.4375 0.1875 0.0000  plane waves:    1622
 k-point    30 :   0.5000 0.1875 0.0000  plane waves:    1622
 k-point    31 :   0.2500 0.2500 0.0000  plane waves:    1608
 k-point    32 :   0.3125 0.2500 0.0000  plane waves:    1617
 k-point    33 :   0.3750 0.2500 0.0000  plane waves:    1621
 k-point    34 :   0.4375 0.2500 0.0000  plane waves:    1623
 k-point    35 :   0.5000 0.2500 0.0000  plane waves:    1624
 k-point    36 :   0.3125 0.3125 0.0000  plane waves:    1614
 k-point    37 :   0.3750 0.3125 0.0000  plane waves:    1619
 k-point    38 :   0.4375 0.3125 0.0000  plane waves:    1620
 k-point    39 :   0.5000 0.3125 0.0000  plane waves:    1614
 k-point    40 :   0.3750 0.3750 0.0000  plane waves:    1620
 k-point    41 :   0.4375 0.3750 0.0000  plane waves:    1618
 k-point    42 :   0.5000 0.3750 0.0000  plane waves:    1614
 k-point    43 :   0.4375 0.4375 0.0000  plane waves:    1628
 k-point    44 :   0.5000 0.4375 0.0000  plane waves:    1624
 k-point    45 :   0.5000 0.5000 0.0000  plane waves:    1628
 k-point    46 :   0.0625 0.0625 0.0625  plane waves:    1626
 k-point    47 :   0.1250 0.0625 0.0625  plane waves:    1633
 k-point    48 :   0.1875 0.0625 0.0625  plane waves:    1630
 k-point    49 :   0.2500 0.0625 0.0625  plane waves:    1620
 k-point    50 :   0.3125 0.0625 0.0625  plane waves:    1619
 k-point    51 :   0.3750 0.0625 0.0625  plane waves:    1621
 k-point    52 :   0.4375 0.0625 0.0625  plane waves:    1621
 k-point    53 :   0.5000 0.0625 0.0625  plane waves:    1622
 k-point    54 :   0.1250 0.1250 0.0625  plane waves:    1636
 k-point    55 :   0.1875 0.1250 0.0625  plane waves:    1625
 k-point    56 :   0.2500 0.1250 0.0625  plane waves:    1616
 k-point    57 :   0.3125 0.1250 0.0625  plane waves:    1618
 k-point    58 :   0.3750 0.1250 0.0625  plane waves:    1619
 k-point    59 :   0.4375 0.1250 0.0625  plane waves:    1612
 k-point    60 :   0.5000 0.1250 0.0625  plane waves:    1620
 k-point    61 :   0.1875 0.1875 0.0625  plane waves:    1620
 k-point    62 :   0.2500 0.1875 0.0625  plane waves:    1619
 k-point    63 :   0.3125 0.1875 0.0625  plane waves:    1619
 k-point    64 :   0.3750 0.1875 0.0625  plane waves:    1615
 k-point    65 :   0.4375 0.1875 0.0625  plane waves:    1615
 k-point    66 :   0.5000 0.1875 0.0625  plane waves:    1616
 k-point    67 :   0.2500 0.2500 0.0625  plane waves:    1611
 k-point    68 :   0.3125 0.2500 0.0625  plane waves:    1612
 k-point    69 :   0.3750 0.2500 0.0625  plane waves:    1611
 k-point    70 :   0.4375 0.2500 0.0625  plane waves:    1618
 k-point    71 :   0.5000 0.2500 0.0625  plane waves:    1614
 k-point    72 :   0.3125 0.3125 0.0625  plane waves:    1609
 k-point    73 :   0.3750 0.3125 0.0625  plane waves:    1618
 k-point    74 :   0.4375 0.3125 0.0625  plane waves:    1622
 k-point    75 :   0.5000 0.3125 0.0625  plane waves:    1616
 k-point    76 :   0.3750 0.3750 0.0625  plane waves:    1621
 k-point    77 :   0.4375 0.3750 0.0625  plane waves:    1623
 k-point    78 :   0.5000 0.3750 0.0625  plane waves:    1626
 k-point    79 :   0.4375 0.4375 0.0625  plane waves:    1632
 k-point    80 :   0.5000 0.4375 0.0625  plane waves:    1626
 k-point    81 :   0.5000 0.5000 0.0625  plane waves:    1632
 k-point    82 :   0.1250 0.1250 0.1250  plane waves:    1641
 k-point    83 :   0.1875 0.1250 0.1250  plane waves:    1626
 k-point    84 :   0.2500 0.1250 0.1250  plane waves:    1619
 k-point    85 :   0.3125 0.1250 0.1250  plane waves:    1625
 k-point    86 :   0.3750 0.1250 0.1250  plane waves:    1618
 k-point    87 :   0.4375 0.1250 0.1250  plane waves:    1616
 k-point    88 :   0.5000 0.1250 0.1250  plane waves:    1618
 k-point    89 :   0.1875 0.1875 0.1250  plane waves:    1627
 k-point    90 :   0.2500 0.1875 0.1250  plane waves:    1623
 k-point    91 :   0.3125 0.1875 0.1250  plane waves:    1619
 k-point    92 :   0.3750 0.1875 0.1250  plane waves:    1612
 k-point    93 :   0.4375 0.1875 0.1250  plane waves:    1616
 k-point    94 :   0.5000 0.1875 0.1250  plane waves:    1606
 k-point    95 :   0.2500 0.2500 0.1250  plane waves:    1607
 k-point    96 :   0.3125 0.2500 0.1250  plane waves:    1610
 k-point    97 :   0.3750 0.2500 0.1250  plane waves:    1619
 k-point    98 :   0.4375 0.2500 0.1250  plane waves:    1619
 k-point    99 :   0.5000 0.2500 0.1250  plane waves:    1618
 k-point   100 :   0.3125 0.3125 0.1250  plane waves:    1613
 k-point   101 :   0.3750 0.3125 0.1250  plane waves:    1619
 k-point   102 :   0.4375 0.3125 0.1250  plane waves:    1615
 k-point   103 :   0.5000 0.3125 0.1250  plane waves:    1618
 k-point   104 :   0.3750 0.3750 0.1250  plane waves:    1626
 k-point   105 :   0.4375 0.3750 0.1250  plane waves:    1616
 k-point   106 :   0.5000 0.3750 0.1250  plane waves:    1622
 k-point   107 :   0.4375 0.4375 0.1250  plane waves:    1618
 k-point   108 :   0.5000 0.4375 0.1250  plane waves:    1618
 k-point   109 :   0.5000 0.5000 0.1250  plane waves:    1632
 k-point   110 :   0.1875 0.1875 0.1875  plane waves:    1620
 k-point   111 :   0.2500 0.1875 0.1875  plane waves:    1620
 k-point   112 :   0.3125 0.1875 0.1875  plane waves:    1620
 k-point   113 :   0.3750 0.1875 0.1875  plane waves:    1612
 k-point   114 :   0.4375 0.1875 0.1875  plane waves:    1616
 k-point   115 :   0.5000 0.1875 0.1875  plane waves:    1610
 k-point   116 :   0.2500 0.2500 0.1875  plane waves:    1616
 k-point   117 :   0.3125 0.2500 0.1875  plane waves:    1614
 k-point   118 :   0.3750 0.2500 0.1875  plane waves:    1620
 k-point   119 :   0.4375 0.2500 0.1875  plane waves:    1619
 k-point   120 :   0.5000 0.2500 0.1875  plane waves:    1616
 k-point   121 :   0.3125 0.3125 0.1875  plane waves:    1617
 k-point   122 :   0.3750 0.3125 0.1875  plane waves:    1621
 k-point   123 :   0.4375 0.3125 0.1875  plane waves:    1619
 k-point   124 :   0.5000 0.3125 0.1875  plane waves:    1618
 k-point   125 :   0.3750 0.3750 0.1875  plane waves:    1616
 k-point   126 :   0.4375 0.3750 0.1875  plane waves:    1617
 k-point   127 :   0.5000 0.3750 0.1875  plane waves:    1618
 k-point   128 :   0.4375 0.4375 0.1875  plane waves:    1622
 k-point   129 :   0.5000 0.4375 0.1875  plane waves:    1620
 k-point   130 :   0.5000 0.5000 0.1875  plane waves:    1624
 k-point   131 :   0.2500 0.2500 0.2500  plane waves:    1607
 k-point   132 :   0.3125 0.2500 0.2500  plane waves:    1616
 k-point   133 :   0.3750 0.2500 0.2500  plane waves:    1623
 k-point   134 :   0.4375 0.2500 0.2500  plane waves:    1613
 k-point   135 :   0.5000 0.2500 0.2500  plane waves:    1622
 k-point   136 :   0.3125 0.3125 0.2500  plane waves:    1613
 k-point   137 :   0.3750 0.3125 0.2500  plane waves:    1614
 k-point   138 :   0.4375 0.3125 0.2500  plane waves:    1624
 k-point   139 :   0.5000 0.3125 0.2500  plane waves:    1626
 k-point   140 :   0.3750 0.3750 0.2500  plane waves:    1614
 k-point   141 :   0.4375 0.3750 0.2500  plane waves:    1622
 k-point   142 :   0.5000 0.3750 0.2500  plane waves:    1618
 k-point   143 :   0.4375 0.4375 0.2500  plane waves:    1613
 k-point   144 :   0.5000 0.4375 0.2500  plane waves:    1618
 k-point   145 :   0.5000 0.5000 0.2500  plane waves:    1596
 k-point   146 :   0.3125 0.3125 0.3125  plane waves:    1622
 k-point   147 :   0.3750 0.3125 0.3125  plane waves:    1616
 k-point   148 :   0.4375 0.3125 0.3125  plane waves:    1621
 k-point   149 :   0.5000 0.3125 0.3125  plane waves:    1614
 k-point   150 :   0.3750 0.3750 0.3125  plane waves:    1614
 k-point   151 :   0.4375 0.3750 0.3125  plane waves:    1615
 k-point   152 :   0.5000 0.3750 0.3125  plane waves:    1618
 k-point   153 :   0.4375 0.4375 0.3125  plane waves:    1614
 k-point   154 :   0.5000 0.4375 0.3125  plane waves:    1622
 k-point   155 :   0.5000 0.5000 0.3125  plane waves:    1612
 k-point   156 :   0.3750 0.3750 0.3750  plane waves:    1610
 k-point   157 :   0.4375 0.3750 0.3750  plane waves:    1620
 k-point   158 :   0.5000 0.3750 0.3750  plane waves:    1628
 k-point   159 :   0.4375 0.4375 0.3750  plane waves:    1623
 k-point   160 :   0.5000 0.4375 0.3750  plane waves:    1612
 k-point   161 :   0.5000 0.5000 0.3750  plane waves:    1604
 k-point   162 :   0.4375 0.4375 0.4375  plane waves:    1610
 k-point   163 :   0.5000 0.4375 0.4375  plane waves:    1614
 k-point   164 :   0.5000 0.5000 0.4375  plane waves:    1612
 k-point   165 :   0.5000 0.5000 0.5000  plane waves:    1640

 maximum and minimum number of plane-waves per node :      1647     1596

 maximum number of plane-waves:      1647
 maximum index in each direction: 
   IXMAX=    7   IYMAX=    7   IZMAX=    7
   IXMIN=   -7   IYMIN=   -7   IZMIN=   -7


 serial   3D FFT for wavefunctions
 parallel 3D FFT for charge:
    minimum data exchange during FFTs selected (reduces bandwidth)


 total amount of memory used by VASP MPI-rank0   174496. kBytes
=======================================================================

   base      :      30000. kBytes
   nonl-proj :      39261. kBytes
   fftplans  :       8118. kBytes
   grid      :       6177. kBytes
   one-center:        124. kBytes
   wavefun   :      90816. kBytes
 
     INWAV:  cpu time      0.0000: real time      0.0000
 Broyden mixing: mesh for mixing (old mesh)
   NGX = 15   NGY = 15   NGZ = 15
  (NGX  = 60   NGY  = 60   NGZ  = 60)
  gives a total of   3375 points

 initial charge density was supplied:
 charge density of overlapping atoms calculated
 number of electron      64.0000000 magnetization       4.0000000
 keeping initial charge density in first step


--------------------------------------------------------------------------------------------------------


 Maximum index for augmentation-charges         34825 (set IRDMAX)


--------------------------------------------------------------------------------------------------------


 First call to EWALD:  gamma=   0.452
 Maximum number of real-space cells 3x 3x 3
 Maximum number of reciprocal cells 3x 3x 3

    FEWALD:  cpu time      0.0004: real time      0.0004


--------------------------------------- Ionic step        1  -------------------------------------------




--------------------------------------- Iteration      1(   1)  ---------------------------------------


    POTLOK:  cpu time      0.0416: real time      0.0416
    SETDIJ:  cpu time      0.4185: real time      0.4186
     EDDAV:  cpu time     13.1706: real time     13.3202
       DOS:  cpu time      0.0018: real time      0.0018
    --------------------------------------------
      LOOP:  cpu time     13.6326: real time     13.7821

 eigenvalue-minimisations  : 27192
 total energy-change (2. order) : 0.7777723E+03  (-0.4001440E+04)
 number of electron      64.0000000 magnetization       4.0000000
 augmentation part       64.0000000 magnetization       4.0000000

 Free energy of the ion-electron system (eV)
  ---------------------------------------------------
  alpha Z        PSCENC =       542.73305656
  Ewald energy   TEWEN  =     -8629.09612564
  -Hartree energ DENC   =     -2225.92554515
  -exchange      EXHF   =         0.00000000
  -V(xc)+E(xc)   XCENC  =       331.53594691
  PAW double counting   =      9031.68406025    -8916.38598993
  entropy T*S    EENTRO =        -0.00000041
  eigenvalues    EBANDS =       157.04198642
  atomic energy  EATOM  =     10486.18486129
  Solvation  Ediel_sol  =         0.00000000
  ---------------------------------------------------
  free energy    TOTEN  =       777.77225030 eV

  energy without entropy =      777.77225071  energy(sigma->0) =      777.77225043


--------------------------------------------------------------------------------------------------------




--------------------------------------- Iteration      1(   2)  ---------------------------------------


     EDDAV:  cpu time     11.1744: real time     11.1764
       DOS:  cpu time      0.0022: real time      0.0022
    --------------------------------------------
      LOOP:  cpu time     11.1766: real time     11.1786

 eigenvalue-minimisations  : 27576
 total energy-change (2. order) :-0.7706586E+03  (-0.7432465E+03)
 number of electron      64.0000000 magnetization       4.0000000
 augmentation part       64.0000000 magnetization       4.0000000

 Free energy of the ion-electron system (eV)
  ---------------------------------------------------
  alpha Z        PSCENC =       542.73305656
  Ewald energy   TEWEN  =     -8629.09612564
  -Hartree energ DENC   =     -2225.92554515
  -exchange      EXHF   =         0.00000000
  -V(xc)+E(xc)   XCENC  =       331.53594691
  PAW double counting   =      9031.68406025    -8916.38598993
  entropy T*S    EENTRO =        -0.00172048
  eigenvalues    EBANDS =      -613.61494176
  atomic energy  EATOM  =     10486.18486129
  Solvation  Ediel_sol  =         0.00000000
  ---------------------------------------------------
  free energy    TOTEN  =         7.11360205 eV

  energy without entropy =        7.11532253  energy(sigma->0) =        7.11417554


--------------------------------------------------------------------------------------------------------




--------------------------------------- Iteration      1(   3)  ---------------------------------------


     EDDAV:  cpu time     11.6135: real time     11.6636
       DOS:  cpu time      0.0022: real time      0.0070
    --------------------------------------------
      LOOP:  cpu time     11.6157: real time     11.6705

 eigenvalue-minimisations  : 29408
 total energy-change (2. order) :-0.2849416E+02  (-0.2786527E+02)
 number of electron      64.0000000 magnetization       4.0000000
 augmentation part       64.0000000 magnetization       4.0000000

 Free energy of the ion-electron system (eV)
  ---------------------------------------------------
  alpha Z        PSCENC =       542.73305656
  Ewald energy   TEWEN  =     -8629.09612564
  -Hartree energ DENC   =     -2225.92554515
  -exchange      EXHF   =         0.00000000
  -V(xc)+E(xc)   XCENC  =       331.53594691
  PAW double counting   =      9031.68406025    -8916.38598993
  entropy T*S    EENTRO =         0.00137643
  eigenvalues    EBANDS =      -642.11219886
  atomic energy  EATOM  =     10486.18486129
  Solvation  Ediel_sol  =         0.00000000
  ---------------------------------------------------
  free energy    TOTEN  =       -21.38055815 eV

  energy without entropy =      -21.38193458  energy(sigma->0) =      -21.38101696


--------------------------------------------------------------------------------------------------------




--------------------------------------- Iteration      1(   4)  ---------------------------------------


     EDDAV:  cpu time     11.7009: real time     11.7593
       DOS:  cpu time      0.0022: real time      0.0022
    --------------------------------------------
      LOOP:  cpu time     11.7030: real time     11.7615

 eigenvalue-minimisations  : 28488
 total energy-change (2. order) :-0.3079410E+00  (-0.3078578E+00)
 number of electron      64.0000000 magnetization       4.0000000
 augmentation part       64.0000000 magnetization       4.0000000

 Free energy of the ion-electron system (eV)
  ---------------------------------------------------
  alpha Z        PSCENC =       542.73305656
  Ewald energy   TEWEN  =     -8629.09612564
  -Hartree energ DENC   =     -2225.92554515
  -exchange      EXHF   =         0.00000000
  -V(xc)+E(xc)   XCENC  =       331.53594691
  PAW double counting   =      9031.68406025    -8916.38598993
  entropy T*S    EENTRO =         0.00141778
  eigenvalues    EBANDS =      -642.42018126
  atomic energy  EATOM  =     10486.18486129
  Solvation  Ediel_sol  =         0.00000000
  ---------------------------------------------------
  free energy    TOTEN  =       -21.68849919 eV

  energy without entropy =      -21.68991698  energy(sigma->0) =      -21.68897179


--------------------------------------------------------------------------------------------------------




--------------------------------------- Iteration      1(   5)  ---------------------------------------


     EDDAV:  cpu time     11.5923: real time     11.5934
       DOS:  cpu time      0.0021: real time      0.0021
    CHARGE:  cpu time      1.0320: real time      1.0321
    MIXING:  cpu time      0.0012: real time      0.0012
    --------------------------------------------
      LOOP:  cpu time     12.6276: real time     12.6288

 eigenvalue-minimisations  : 29232
 total energy-change (2. order) :-0.5007792E-02  (-0.5007747E-02)
 number of electron      64.0000003 magnetization       1.7991837
 augmentation part       29.8765793 magnetization       0.9982386

 Broyden mixing:
  rms(total) = 0.10846E+01    rms(broyden)= 0.10846E+01
  rms(prec ) = 0.18662E+01
  weight for this iteration     100.00

 Free energy of the ion-electron system (eV)
  ---------------------------------------------------
  alpha Z        PSCENC =       542.73305656
  Ewald energy   TEWEN  =     -8629.09612564
  -Hartree energ DENC   =     -2225.92554515
  -exchange      EXHF   =         0.00000000
  -V(xc)+E(xc)   XCENC  =       331.53594691
  PAW double counting   =      9031.68406025    -8916.38598993
  entropy T*S    EENTRO =         0.00141806
  eigenvalues    EBANDS =      -642.42518933
  atomic energy  EATOM  =     10486.18486129
  Solvation  Ediel_sol  =         0.00000000
  ---------------------------------------------------
  free energy    TOTEN  =       -21.69350699 eV

  energy without entropy =      -21.69492505  energy(sigma->0) =      -21.69397967


--------------------------------------------------------------------------------------------------------




--------------------------------------- Iteration      1(   6)  ---------------------------------------


    POTLOK:  cpu time      0.0406: real time      0.0406
    SETDIJ:  cpu time      0.4209: real time      0.4209
     EDDAV:  cpu time     11.4208: real time     11.4240
       DOS:  cpu time      0.0022: real time      0.0022
    CHARGE:  cpu time      1.0265: real time      1.0266
    MIXING:  cpu time      0.0014: real time      0.0014
    --------------------------------------------
      LOOP:  cpu time     12.9123: real time     12.9156

 eigenvalue-minimisations  : 28512
 total energy-change (2. order) : 0.8643073E+00  (-0.3751305E+00)
 number of electron      64.0000003 magnetization       1.5149551
 augmentation part       30.6963095 magnetization       0.9199221

 Broyden mixing:
  rms(total) = 0.22911E+00    rms(broyden)= 0.22908E+00
  rms(prec ) = 0.27584E+00
  weight for this iteration     100.00

 eigenvalues of (default mixing * dielectric matrix)
  average eigenvalue GAMMA=   1.0013
  1.0013

 Free energy of the ion-electron system (eV)
  ---------------------------------------------------
  alpha Z        PSCENC =       542.73305656
  Ewald energy   TEWEN  =     -8629.09612564
  -Hartree energ DENC   =     -2157.26834037
  -exchange      EXHF   =         0.00000000
  -V(xc)+E(xc)   XCENC  =       328.31750589
  PAW double counting   =      9250.96684036    -9143.43620790
  entropy T*S    EENTRO =        -0.00126609
  eigenvalues    EBANDS =      -699.22952375
  atomic energy  EATOM  =     10486.18486129
  Solvation  Ediel_sol  =         0.00000000
  ---------------------------------------------------
  free energy    TOTEN  =       -20.82919966 eV

  energy without entropy =      -20.82793357  energy(sigma->0) =      -20.82877763


--------------------------------------------------------------------------------------------------------




--------------------------------------- Iteration      1(   7)  ---------------------------------------


    POTLOK:  cpu time      0.0405: real time      0.0405
    SETDIJ:  cpu time      0.4237: real time      0.4238
     EDDAV:  cpu time     12.2770: real time     12.2823
       DOS:  cpu time      0.0022: real time      0.0022
    CHARGE:  cpu time      1.0293: real time      1.0294
    MIXING:  cpu time      0.0013: real time      0.0013
    --------------------------------------------
      LOOP:  cpu time     13.7740: real time     13.7795

 eigenvalue-minimisations  : 28288
 total energy-change (2. order) : 0.2136299E-02  (-0.3890355E-02)
 number of electron      64.0000003 magnetization       1.3231130
 augmentation part       30.6817239 magnetization       0.8321902

 Broyden mixing:
  rms(total) = 0.15027E+00    rms(broyden)= 0.15027E+00
  rms(prec ) = 0.17741E+00
  weight for this iteration     100.00

 eigenvalues of (default mixing * dielectric matrix)
  average eigenvalue GAMMA=   0.9654
  1.2767  0.6540

 Free energy of the ion-electron system (eV)
  ---------------------------------------------------
  alpha Z        PSCENC =       542.73305656
  Ewald energy   TEWEN  =     -8629.09612564
  -Hartree energ DENC   =     -2156.38301691
  -exchange      EXHF   =         0.00000000
  -V(xc)+E(xc)   XCENC  =       328.26461700
  PAW double counting   =      9381.22683771    -9275.03808870
  entropy T*S    EENTRO =        -0.00172537
  eigenvalues    EBANDS =      -698.71747929
  atomic energy  EATOM  =     10486.18486129
  Solvation  Ediel_sol  =         0.00000000
  ---------------------------------------------------
  free energy    TOTEN  =       -20.82706336 eV

  energy without entropy =      -20.82533799  energy(sigma->0) =      -20.82648823


--------------------------------------------------------------------------------------------------------




--------------------------------------- Iteration      1(   8)  ---------------------------------------


    POTLOK:  cpu time      0.0399: real time      0.0399
    SETDIJ:  cpu time      0.4173: real time      0.4208
     EDDAV:  cpu time     12.3590: real time     12.3645
       DOS:  cpu time      0.0023: real time      0.0023
    CHARGE:  cpu time      1.0249: real time      1.0249
    MIXING:  cpu time      0.0013: real time      0.0013
    --------------------------------------------
      LOOP:  cpu time     13.8446: real time     13.8538

 eigenvalue-minimisations  : 29152
 total energy-change (2. order) : 0.2154596E-02  (-0.4314195E-03)
 number of electron      64.0000003 magnetization       1.1764854
 augmentation part       30.6823098 magnetization       0.7084975

 Broyden mixing:
  rms(total) = 0.82748E-01    rms(broyden)= 0.82748E-01
  rms(prec ) = 0.96833E-01
  weight for this iteration     100.00

 eigenvalues of (default mixing * dielectric matrix)
  average eigenvalue GAMMA=   1.2591
  2.2358  0.9295  0.6119

 Free energy of the ion-electron system (eV)
  ---------------------------------------------------
  alpha Z        PSCENC =       542.73305656
  Ewald energy   TEWEN  =     -8629.09612564
  -Hartree energ DENC   =     -2154.95514196
  -exchange      EXHF   =         0.00000000
  -V(xc)+E(xc)   XCENC  =       328.18626039
[...]
     38      16.9419      0.00000
     39      16.9419      0.00000
     40      16.9419      0.00000

 k-point   162 :       0.4375    0.4375    0.4375
  band No.  band energies     occupation 
      1     -40.5554      1.00000
      2     -40.5554      1.00000
      3     -40.5554      1.00000
      4     -40.5473      1.00000
      5     -40.2410      1.00000
      6     -40.2410      1.00000
      7     -40.2410      1.00000
      8     -40.2354      1.00000
      9     -40.2354      1.00000
     10     -40.2354      1.00000
     11     -40.2299      1.00000
     12     -40.2299      1.00000
     13       4.2523      1.00000
     14       4.3241      1.00000
     15       4.3241      1.00000
     16       4.3241      1.00000
     17       6.5267      1.00000
     18       6.5267      1.00000
     19       6.5267      1.00000
     20       6.6344      1.00000
     21       6.6344      1.00000
     22       6.6883      1.00000
     23       6.6883      1.00000
     24       6.6883      1.00000
     25       8.7394      1.00000
     26       8.7394      1.00000
     27       8.7394      1.00000
     28       9.3063      0.68846
     29       9.3063      0.68846
     30       9.4094      0.00944
     31       9.4094      0.00944
     32       9.4094      0.00944
     33       9.7455     -0.00000
     34      11.0169     -0.00000
     35      11.0169     -0.00000
     36      11.0169     -0.00000
     37      16.6461      0.00000
     38      16.6461      0.00000
     39      16.6461      0.00000
     40      17.3596      0.00000

 k-point   163 :       0.5000    0.4375    0.4375
  band No.  band energies     occupation 
      1     -40.5581      1.00000
      2     -40.5581      1.00000
      3     -40.5541      1.00000
      4     -40.5541      1.00000
      5     -40.2396      1.00000
      6     -40.2396      1.00000
      7     -40.2341      1.00000
      8     -40.2341      1.00000
      9     -40.2327      1.00000
     10     -40.2327      1.00000
     11     -40.2326      1.00000
     12     -40.2326      1.00000
     13       4.2629      1.00000
     14       4.2629      1.00000
     15       4.2986      1.00000
     16       4.2986      1.00000
     17       6.5446      1.00000
     18       6.5446      1.00000
     19       6.5938      1.00000
     20       6.5938      1.00000
     21       6.6401      1.00000
     22       6.6401      1.00000
     23       6.6614      1.00000
     24       6.6614      1.00000
     25       8.8950      1.00000
     26       8.8950      1.00000
     27       9.0823      1.00133
     28       9.0823      1.00133
     29       9.3877      0.08676
     30       9.3877      0.08676
     31       9.3919      0.06828
     32       9.3919      0.06828
     33      10.3367     -0.00000
     34      10.3367     -0.00000
     35      10.9545     -0.00000
     36      10.9545     -0.00000
     37      16.5460      0.00000
     38      16.5460      0.00000
     39      16.9319      0.00000
     40      16.9319      0.00000

 k-point   164 :       0.5000    0.5000    0.4375
  band No.  band energies     occupation 
      1     -40.5589      1.00000
      2     -40.5589      1.00000
      3     -40.5589      1.00000
      4     -40.5589      1.00000
      5     -40.2348      1.00000
      6     -40.2348      1.00000
      7     -40.2348      1.00000
      8     -40.2348      1.00000
      9     -40.2320      1.00000
     10     -40.2320      1.00000
     11     -40.2320      1.00000
     12     -40.2320      1.00000
     13       4.2546      1.00000
     14       4.2546      1.00000
     15       4.2546      1.00000
     16       4.2546      1.00000
     17       6.5883      1.00000
     18       6.5883      1.00000
     19       6.5883      1.00000
     20       6.5883      1.00000
     21       6.6234      1.00000
     22       6.6234      1.00000
     23       6.6234      1.00000
     24       6.6234      1.00000
     25       9.1783      1.02726
     26       9.1783      1.02726
     27       9.1783      1.02726
     28       9.1783      1.02726
     29       9.3722      0.17066
     30       9.3722      0.17066
     31       9.3722      0.17066
     32       9.3722      0.17066
     33      10.5390     -0.00000
     34      10.5390     -0.00000
     35      10.5390     -0.00000
     36      10.5390     -0.00000
     37      16.6488      0.00000
     38      16.6488      0.00000
     39      16.6488      0.00000
     40      16.6488      0.00000

 k-point   165 :       0.5000    0.5000    0.5000
  band No.  band energies     occupation 
      1     -40.5617      1.00000
      2     -40.5617      1.00000
      3     -40.5617      1.00000
      4     -40.5617      1.00000
      5     -40.2320      1.00000
      6     -40.2320      1.00000
      7     -40.2320      1.00000
      8     -40.2320      1.00000
      9     -40.2320      1.00000
     10     -40.2320      1.00000
     11     -40.2320      1.00000
     12     -40.2320      1.00000
     13       4.2277      1.00000
     14       4.2277      1.00000
     15       4.2277      1.00000
     16       4.2277      1.00000
     17       6.6018      1.00000
     18       6.6018      1.00000
     19       6.6018      1.00000
     20       6.6018      1.00000
     21       6.6018      1.00000
     22       6.6018      1.00000
     23       6.6018      1.00000
     24       6.6018      1.00000
     25       9.4031      0.02729
     26       9.4031      0.02729
     27       9.4031      0.02729
     28       9.4031      0.02729
     29       9.4031      0.02729
     30       9.4031      0.02729
     31       9.4031      0.02729
     32       9.4031      0.02729
     33      10.3573     -0.00000
     34      10.3573     -0.00000
     35      10.3573     -0.00000
     36      10.3573     -0.00000
     37      16.5508      0.00000
     38      16.5508      0.00000
     39      16.5508      0.00000
     40      16.5508      0.00000


--------------------------------------------------------------------------------------------------------


 soft charge-density along one line, spin component            1
         0         1         2         3         4         5         6         7         8         9
 total charge-density along one line
 
 soft charge-density along one line, spin component            2
         0         1         2         3         4         5         6         7         8         9
 total charge-density along one line
 
 pseudopotential strength for first ion, spin component:            1
-37.314  -0.000  -0.000   8.288   0.000   0.000  -0.000   0.000
 -0.000 -37.314  -0.000   0.000   8.288   0.000  -0.000  -0.000
 -0.000  -0.000 -37.314   0.000   0.000   8.288  -0.000  -0.000
  8.288   0.000   0.000   7.864  -0.000  -0.000   0.000  -0.000
  0.000   8.288   0.000  -0.000   7.864  -0.000   0.000   0.000
  0.000   0.000   8.288  -0.000  -0.000   7.864   0.000   0.000
 -0.000  -0.000  -0.000   0.000   0.000   0.000  -2.371  -0.000
  0.000  -0.000  -0.000  -0.000   0.000   0.000  -0.000  -2.371
  0.000   0.000   0.000  -0.000  -0.000  -0.000   0.000   0.000
 -0.000   0.000   0.000   0.000  -0.000  -0.000  -0.000  -0.000
  0.000   0.000   0.000  -0.000  -0.000  -0.000  -0.000   0.000
 -0.000  -0.000  -0.000   0.000   0.000   0.000  -2.029  -0.000
  0.000  -0.000  -0.000  -0.000   0.000   0.000  -0.000  -2.029
  0.000   0.000   0.000  -0.000  -0.000  -0.000   0.000   0.000
 -0.000   0.000   0.000   0.000  -0.000  -0.000  -0.000  -0.000
  0.000   0.000   0.000  -0.000  -0.000  -0.000  -0.000   0.000
  0.000  -0.000  -0.000   0.000  -0.000   0.000   0.000   0.000
  0.000  -0.000  -0.000   0.000  -0.000   0.000   0.000   0.000
 pseudopotential strength for first ion, spin component:            2
-37.184  -0.000  -0.000   8.220   0.000   0.000  -0.000   0.000
 -0.000 -37.184  -0.000   0.000   8.220   0.000   0.000  -0.000
 -0.000  -0.000 -37.184   0.000   0.000   8.220  -0.000   0.000
  8.220   0.000   0.000   7.881  -0.000  -0.000   0.000  -0.000
  0.000   8.220   0.000  -0.000   7.881  -0.000  -0.000   0.000
  0.000   0.000   8.220  -0.000  -0.000   7.881   0.000  -0.000
 -0.000   0.000  -0.000   0.000  -0.000   0.000  -2.231  -0.000
  0.000  -0.000   0.000  -0.000   0.000  -0.000  -0.000  -2.231
  0.000   0.000   0.000  -0.000  -0.000  -0.000   0.000   0.000
  0.000   0.000   0.000  -0.000  -0.000  -0.000  -0.000  -0.000
  0.000   0.000   0.000  -0.000  -0.000  -0.000  -0.000   0.000
 -0.000   0.000  -0.000   0.000   0.000   0.000  -1.874  -0.000
  0.000  -0.000   0.000  -0.000   0.000   0.000  -0.000  -1.874
  0.000   0.000   0.000  -0.000  -0.000  -0.000   0.000   0.000
  0.000   0.000   0.000   0.000  -0.000  -0.000  -0.000  -0.000
  0.000   0.000   0.000  -0.000  -0.000  -0.000  -0.000   0.000
  0.000  -0.000  -0.000   0.000  -0.000   0.000   0.000   0.000
  0.000  -0.000  -0.000   0.000  -0.000   0.000   0.000   0.000
 total augmentation occupancy for first ion, spin component:            1
  1.998   0.000   0.000  -0.014  -0.000  -0.000   0.000  -0.000  -0.000   0.000   0.000  -0.000   0.000  -0.000   0.000   0.000
  0.000   1.998   0.000  -0.000  -0.014  -0.000  -0.000  -0.000  -0.000   0.000   0.000   0.000   0.000   0.000   0.000  -0.000
  0.000   0.000   1.998  -0.000  -0.000  -0.014   0.000  -0.000   0.000   0.000  -0.000   0.000  -0.000  -0.000  -0.000   0.000
 -0.014  -0.000  -0.000   0.104   0.000   0.000   0.000  -0.000  -0.000  -0.000  -0.000  -0.000  -0.000   0.000  -0.000   0.000
 -0.000  -0.014  -0.000   0.000   0.104   0.000  -0.000   0.000   0.000   0.000   0.000   0.000  -0.000   0.000   0.000   0.000
 -0.000  -0.000  -0.014   0.000   0.000   0.104   0.000   0.000   0.000   0.000  -0.000   0.000   0.000  -0.000   0.000   0.000
  0.000  -0.000   0.000   0.000  -0.000   0.000   2.756   0.000  -0.000   0.000   0.000  -0.737  -0.000   0.000  -0.000  -0.000
 -0.000  -0.000  -0.000  -0.000   0.000   0.000   0.000   2.756   0.000   0.000  -0.000  -0.000  -0.737  -0.000  -0.000   0.000
 -0.000   0.000   0.000   0.000   0.000   0.000  -0.000   0.000   2.528   0.000   0.000   0.000  -0.000  -0.545  -0.000  -0.000
  0.000   0.000   0.000  -0.000   0.000   0.000   0.000   0.000   0.000   2.756   0.000  -0.000  -0.000  -0.000  -0.737  -0.000
 -0.000   0.000   0.000   0.000   0.000  -0.000   0.000  -0.000   0.000   0.000   2.528  -0.000   0.000  -0.000  -0.000  -0.545
 -0.000   0.000   0.000  -0.000   0.000   0.000  -0.737  -0.000   0.000  -0.000  -0.000   0.473   0.000  -0.000   0.000   0.000
  0.000   0.000  -0.000  -0.000  -0.000   0.000  -0.000  -0.737  -0.000  -0.000   0.000   0.000   0.473   0.000   0.000  -0.000
  0.000   0.000  -0.000  -0.000   0.000   0.000   0.000  -0.000  -0.545  -0.000  -0.000  -0.000   0.000   0.427   0.000   0.000
  0.000   0.000  -0.000  -0.000   0.000   0.000  -0.000  -0.000  -0.000  -0.737  -0.000   0.000   0.000   0.000   0.473   0.000
 -0.000  -0.000   0.000  -0.000   0.000  -0.000  -0.000   0.000  -0.000  -0.000  -0.545   0.000  -0.000   0.000   0.000   0.427
  0.000  -0.000   0.000  -0.000  -0.000   0.000   0.000   0.000   0.000   0.000   0.000   0.000   0.000  -0.000   0.000   0.000
  0.000  -0.000   0.000   0.000  -0.000  -0.000  -0.000  -0.000  -0.000  -0.000  -0.000   0.000   0.000   0.000   0.000  -0.000
 total augmentation occupancy for first ion, spin component:            2
  0.000   0.000   0.000   0.000   0.000   0.000  -0.000   0.000   0.000   0.000  -0.000  -0.000  -0.000   0.000   0.000  -0.000
  0.000   0.000   0.000   0.000   0.000  -0.000   0.000   0.000  -0.000  -0.000   0.000   0.000  -0.000   0.000  -0.000   0.000
  0.000   0.000   0.000   0.000  -0.000   0.000  -0.000   0.000  -0.000   0.000   0.000  -0.000  -0.000   0.000   0.000   0.000
  0.000   0.000   0.000  -0.002  -0.000  -0.000  -0.000  -0.000   0.000  -0.000  -0.000   0.000  -0.000   0.000  -0.000   0.000
  0.000   0.000  -0.000  -0.000  -0.002  -0.000   0.000   0.000  -0.000   0.000  -0.000  -0.000  -0.000   0.000   0.000  -0.000
  0.000  -0.000   0.000  -0.000  -0.000  -0.002   0.000   0.000   0.000  -0.000   0.000   0.000  -0.000  -0.000  -0.000  -0.000
 -0.000   0.000  -0.000  -0.000   0.000   0.000  -0.044  -0.000   0.000  -0.000  -0.000   0.046   0.000  -0.000   0.000   0.000
  0.000   0.000   0.000  -0.000   0.000   0.000  -0.000  -0.044  -0.000  -0.000   0.000   0.000   0.046   0.000   0.000  -0.000
  0.000   0.000   0.000  -0.000   0.000  -0.000   0.000  -0.000  -0.033  -0.000  -0.000  -0.000   0.000   0.028   0.000   0.000
  0.000  -0.000   0.000  -0.000   0.000  -0.000  -0.000  -0.000  -0.000  -0.044  -0.000   0.000   0.000   0.000   0.046   0.000
 -0.000   0.000   0.000  -0.000   0.000  -0.000  -0.000   0.000  -0.000  -0.000  -0.033   0.000  -0.000   0.000   0.000   0.028
 -0.000   0.000  -0.000   0.000  -0.000   0.000   0.046   0.000  -0.000   0.000   0.000   0.028   0.000  -0.000   0.000   0.000
 -0.000  -0.000  -0.000  -0.000  -0.000  -0.000   0.000   0.046   0.000   0.000  -0.000   0.000   0.028   0.000   0.000   0.000
  0.000   0.000   0.000   0.000  -0.000  -0.000  -0.000   0.000   0.028   0.000   0.000  -0.000   0.000   0.010   0.000   0.000
  0.000  -0.000   0.000  -0.000   0.000  -0.000   0.000   0.000   0.000   0.046   0.000   0.000   0.000   0.000   0.028  -0.000
  0.000   0.000   0.000  -0.000   0.000  -0.000   0.000  -0.000   0.000   0.000   0.028   0.000  -0.000   0.000   0.000   0.010
 -0.000  -0.000   0.000   0.000   0.000  -0.000  -0.000   0.000   0.000  -0.000  -0.000  -0.000  -0.000   0.000   0.000   0.000
  0.000   0.000  -0.000  -0.000   0.000   0.000   0.000   0.000   0.000  -0.000   0.000  -0.000   0.000  -0.000   0.000  -0.000


------------------------ aborting loop because EDIFF is reached ----------------------------------------





 total charge

# of ion       s       p       d       tot
------------------------------------------
    1        0.315   6.173   7.977  14.465
    2        0.315   6.173   7.977  14.465
    3        0.315   6.173   7.977  14.465
    4        0.315   6.173   7.977  14.465
--------------------------------------------------
tot          1.261  24.692  31.908  57.861



 magnetization (x)

# of ion       s       p       d       tot
------------------------------------------
    1       -0.002  -0.003   0.288   0.283
    2       -0.002  -0.003   0.288   0.283
    3       -0.002  -0.003   0.288   0.283
    4       -0.002  -0.003   0.288   0.283
--------------------------------------------------
tot         -0.007  -0.013   1.153   1.133
 
    CHARGE:  cpu time      1.0348: real time      1.0349
    FORLOC:  cpu time      0.0008: real time      0.0008
    FORNL :  cpu time      1.5685: real time      1.5686
    FORCOR:  cpu time      0.4516: real time      0.4516
    FORHAR:  cpu time      0.0044: real time      0.0044
    MIXING:  cpu time      0.0014: real time      0.0014
    OFIELD:  cpu time      0.0000: real time      0.0000

 ---------------------------------------------------------------------------------------------

         DFTD3 V3.0 Rev 1        
 DF pbe       
 parameters
 k1-k3        =   16.0000    1.3333   -4.0000
 Edisp (eV)   -2.62093

 E6    (eV) :    -1.4629
 E8    (eV) :    -1.1581
 % E8        : 44.19
    FORVDW:  cpu time      0.0074: real time      0.0074

 VOLUME and BASIS-vectors are now :
 -----------------------------------------------------------------------------
  energy-cutoff  :      520.00
  volume of cell :       60.11
      direct lattice vectors                 reciprocal lattice vectors
     3.917301575  0.000000000  0.000000000     0.255277767 -0.000000000  0.000000000
     0.000000000  3.917301575  0.000000000     0.000000000  0.255277767  0.000000000
     0.000000000  0.000000000  3.917301575    -0.000000000 -0.000000000  0.255277767

  length of vectors
     3.917301575  3.917301575  3.917301575     0.255277767  0.255277767  0.255277767


 FORCES acting on ions
    electron-ion (+dipol)            ewald-force                    non-local-force                 convergence-correction
 -----------------------------------------------------------------------------------------------
   0.954E-15 -.907E-14 -.968E-13   -.366E-13 -.348E-13 0.417E-14   -.455E-25 0.129E-25 0.517E-25   -.192E-13 -.233E-13 -.589E-13
   -.583E-14 0.491E-12 0.406E-12   -.388E-13 0.552E-14 0.106E-13   -.117E-24 -.775E-25 0.000E+00   -.369E-13 0.754E-13 0.398E-13
   0.497E-12 -.134E-13 -.156E-11   0.424E-13 -.761E-14 0.104E-13   0.775E-25 -.194E-24 0.155E-24   0.608E-13 -.516E-13 0.387E-13
   0.501E-12 0.661E-11 -.464E-11   0.402E-13 0.327E-13 -.238E-13   0.567E-25 0.129E-24 -.517E-25   0.730E-13 0.709E-13 -.958E-13
 -----------------------------------------------------------------------------------------------
   0.993E-12 0.708E-11 -.589E-11   0.725E-14 -.417E-14 0.136E-14   -.280E-25 -.129E-24 0.155E-24   0.778E-13 0.713E-13 -.761E-13
 
 
 POSITION                                       TOTAL-FORCE (eV/Angst)
 -----------------------------------------------------------------------------------
      0.00000      0.00000      0.00000        -0.000000     -0.000000     -0.000000
      0.00000      1.95865      1.95865         0.000000     -0.000000      0.000000
      1.95865      0.00000      1.95865        -0.000000      0.000000      0.000000
      1.95865      1.95865      0.00000         0.000000      0.000000     -0.000000
 -----------------------------------------------------------------------------------
    total drift:                                0.000000      0.000000     -0.000000


--------------------------------------------------------------------------------------------------------



  FREE ENERGIE OF THE ION-ELECTRON SYSTEM (eV)
  ---------------------------------------------------
  free  energy   TOTEN  =       -23.44592652 eV

  energy  without entropy=      -23.44355247  energy(sigma->0) =      -23.44513517
 


--------------------------------------------------------------------------------------------------------


    POTLOK:  cpu time      0.4594: real time      0.4594


--------------------------------------------------------------------------------------------------------


     LOOP+:  cpu time    196.0881: real time    196.7126
    4ORBIT:  cpu time      0.0000: real time      0.0000



 total charge

# of ion       s       p       d       tot
------------------------------------------
    1        0.315   6.173   7.977  14.465
    2        0.315   6.173   7.977  14.465
    3        0.315   6.173   7.977  14.465
    4        0.315   6.173   7.977  14.465
--------------------------------------------------
tot          1.261  24.692  31.908  57.861



 magnetization (x)

# of ion       s       p       d       tot
------------------------------------------
    1       -0.002  -0.003   0.288   0.283
    2       -0.002  -0.003   0.288   0.283
    3       -0.002  -0.003   0.288   0.283
    4       -0.002  -0.003   0.288   0.283
--------------------------------------------------
tot         -0.007  -0.013   1.153   1.133
 

 total amount of memory used by VASP MPI-rank0   174496. kBytes
=======================================================================

   base      :      30000. kBytes
   nonl-proj :      39261. kBytes
   fftplans  :       8118. kBytes
   grid      :       6177. kBytes
   one-center:        124. kBytes
   wavefun   :      90816. kBytes
 
  
  
 General timing and accounting informations for this job:
 ========================================================
  
                  Total CPU time used (sec):      199.277
                            User time (sec):      194.064
                          System time (sec):        5.213
                         Elapsed time (sec):      200.664
  
                   Maximum memory used (kb):      477032.
                   Average memory used (kb):          N/A
  
                          Minor page faults:       637180
                          Major page faults:            1
                 Voluntary context switches:          299
