119
Lattice="12.303473692417112 0.0 0.0 0.0 12.303473692417114 0.0 0.0 0.0 29.165420746594243" Properties=species:S:1:pos:R:3:move_mask:L:1:momenta:R:3:forces:R:3 idx=10574 E_MACE=-601.1268597374849 d_min=1.3721156896780342 d_reactive=3.5912183137632097 E=-601.1268597374849 converged=T n_steps=103 d_z=1.2426305230783008 fingerprint="_JSON [1.11, 1.12, 1.12, 1.22, 1.22, 1.91, 2.04, 2.05, 2.07, 3.25, 3.43, 3.59, 3.65, 3.66, 3.79, 3.79, 3.87, 3.98, 4.19, 4.2, 4.45]" dE_rel_meV=538.6293273277261 energy=-601.1268597374849 stress="0.005516029875033163 0.00023797966819745118 -5.8240373540969665e-05 0.00023797966819745118 0.005459633440214581 0.00012316876929946573 -5.8240373540969665e-05 0.00012316876929946573 -0.0032006875648309726" pbc="T T T"
O        8.46714576      11.57660819       9.34232042  T       0.00000000       0.00000000       0.00000000      -0.01366652      -0.02831391       0.00765710
O       11.46527912       5.46613021       9.46122804  T       0.00000000       0.00000000       0.00000000       0.00905391      -0.00388091       0.01283330
O       11.54126584       1.64829094      10.55496885  T       0.00000000       0.00000000       0.00000000      -0.01016139       0.00233450       0.00591956
O       11.51067483      11.47300560       9.45339049  T       0.00000000       0.00000000       0.00000000       0.01069195       0.00292397      -0.01056520
O        8.34336362       7.81574941      10.59535450  T       0.00000000       0.00000000       0.00000000       0.02389074       0.00118054       0.01088247
O        5.34690558      11.54204131       9.39365621  T       0.00000000       0.00000000       0.00000000      -0.00673282      -0.00476701       0.00807865
O        5.36629529       7.77290392      10.58457592  T       0.00000000       0.00000000       0.00000000      -0.01344210       0.03762812      -0.01310664
O        8.48070631       5.45142006       9.34930492  T       0.00000000       0.00000000       0.00000000      -0.02554021       0.00132587      -0.00313349
O       11.36656959       7.90526261      10.96323703  T       0.00000000       0.00000000       0.00000000      -0.01438525      -0.00744928       0.03566511
O        2.23259233       5.48200691       9.37623295  T       0.00000000       0.00000000       0.00000000      -0.00344928       0.00859980      -0.01316812
O        2.27316253       1.69036218      10.51379557  T       0.00000000       0.00000000       0.00000000       0.00262713      -0.00010855      -0.01076101
O        2.32331755      11.59347529       9.35983661  T       0.00000000       0.00000000       0.00000000       0.01315622       0.02709334       0.00757791
O        5.30933870       5.38066770       9.36855616  T       0.00000000       0.00000000       0.00000000       0.01822567      -0.00179284       0.01700785
O        5.40618367       1.64332515      10.56787429  T       0.00000000       0.00000000       0.00000000      -0.01224170       0.01385467       0.00426748
O        2.31345059       7.84789033      10.58048251  T       0.00000000       0.00000000       0.00000000       0.00268526       0.01312693       0.00742426
O        8.46079211       1.67373542      10.52081587  T       0.00000000       0.00000000       0.00000000      -0.01651836       0.01212413      -0.00463714
Pd       5.53656316       9.22760527       1.50000000  F       0.00000000       0.00000000       0.00000000      -0.00116807      -0.01048059      -0.23540443
Pd       6.12523804       7.44898301       7.38999501  T       0.00000000       0.00000000       0.00000000       0.01589900      -0.00275514      -0.00501135
Pd       4.28815433       6.78245218       5.40241719  F       0.00000000       0.00000000       0.00000000      -0.03593105      -0.00020706       0.18499442
Pd       6.15173685       7.38208422       3.44535000  F       0.00000000       0.00000000       0.00000000      -0.00138294       0.00754306       0.05031633
Pd       7.33420179       3.64526661       7.36194242  T       0.00000000       0.00000000       0.00000000       0.01130893       0.01848000      -0.01155083
Pd       5.51948843       3.08419342       5.37702261  F       0.00000000       0.00000000       0.00000000      -0.02307095       0.00279576       0.27320460
Pd       6.76691053       5.53656316       1.50000000  F       0.00000000       0.00000000       0.00000000       0.00168219       0.00536010      -0.23157058
Pd       7.38208422       9.84277895       3.44535000  F       0.00000000       0.00000000       0.00000000       0.09634733       0.01772127       0.14913308
Pd       7.99725790       7.99725790       1.50000000  F       0.00000000       0.00000000       0.00000000      -0.00078265       0.01305635      -0.23173308
Pd       5.51951598       9.23590192       5.37700272  F       0.00000000       0.00000000       0.00000000      -0.01248963      -0.00652782       0.25698364
Pd       8.00616182       7.98477587       5.40628129  F       0.00000000       0.00000000       0.00000000       0.07859731       0.03011580       0.07901116
Pd       6.76691053      11.68830001       1.50000000  F       0.00000000       0.00000000       0.00000000       0.00193524       0.00516863      -0.23163923
Pd       8.61243158       0.00000000       3.44535000  F       0.00000000       0.00000000       0.00000000       0.03789104      -0.06542347       0.12791703
Pd       6.75606179      11.70364973       5.37992114  F       0.00000000       0.00000000       0.00000000       0.03653820      -0.06489887       0.15220852
Pd       8.54932480      -0.00511769       7.41175488  T       0.00000000       0.00000000       0.00000000      -0.00484512       0.00252626      -0.03220288
Pd       9.84277895       8.61243158       3.44535000  F       0.00000000       0.00000000       0.00000000      -0.07635761       0.05672477       0.09934115
Pd       7.38208422       3.69104211       3.44535000  F       0.00000000       0.00000000       0.00000000       0.08296424       0.01704746       0.13635683
Pd       3.69104211       8.61243158       3.44535000  F       0.00000000       0.00000000       0.00000000      -0.06461511       0.02899087       0.08124770
Pd       9.78301649       8.61935046       7.50717475  T       0.00000000       0.00000000       0.00000000       0.01253629      -0.00852034      -0.02032984
Pd       9.22760527      10.45795264       1.50000000  F       0.00000000       0.00000000       0.00000000      -0.00351608      -0.00410985      -0.22678481
Pd       7.31247228       9.81061653       7.35466300  T       0.00000000       0.00000000       0.00000000       0.01377697      -0.01580198      -0.02174053
Pd       1.84552105       7.99725790       1.50000000  F       0.00000000       0.00000000       0.00000000      -0.00396765       0.01357331      -0.23207554
Pd      11.68830001       9.22760527       1.50000000  F       0.00000000       0.00000000       0.00000000      -0.00013021      -0.00997201      -0.23682927
Pd       0.60431863      11.70356305       5.37989931  F       0.00000000       0.00000000       0.00000000       0.01400991       0.00503950       0.13313671
Pd       8.61243158       6.15173685       3.44535000  F       0.00000000       0.00000000       0.00000000       0.04030288      -0.05816164       0.12466726
Pd       6.75605293       5.55187564       5.37990856  F       0.00000000       0.00000000       0.00000000       0.05828213      -0.09043442       0.14223270
Pd       8.56609508       6.14329548       7.40518016  T       0.00000000       0.00000000       0.00000000      -0.00488074       0.00683262      -0.01011940
Pd       7.99725790       1.84552105       1.50000000  F       0.00000000       0.00000000       0.00000000      -0.00202032       0.01380825      -0.23331218
Pd       9.84277895       2.46069474       3.44535000  F       0.00000000       0.00000000       0.00000000      -0.06919062       0.04667111       0.09495316
Pd       8.00617313       1.83308050       5.40627808  F       0.00000000       0.00000000       0.00000000       0.06851541       0.01266030       0.11667597
Pd       9.83255706       2.46845722       7.50894532  T       0.00000000       0.00000000       0.00000000       0.00022902       0.00849626      -0.00903514
Pd       9.22760527       4.30621579       1.50000000  F       0.00000000       0.00000000       0.00000000      -0.00622777      -0.00272453      -0.22859723
Pd       4.92138948       4.92138948       3.44535000  F       0.00000000       0.00000000       0.00000000      -0.08159962       0.02565708       0.05722760
Pd       9.24268554       4.29790846       5.43894925  T       0.00000000       0.00000000       0.00000000       0.00286626       0.00737666       0.00850309
Pd       4.93045033       4.96041649       7.39333923  T       0.00000000       0.00000000       0.00000000      -0.01544460       0.01421752      -0.00109181
Pd      10.45795264       6.76691053       1.50000000  F       0.00000000       0.00000000       0.00000000       0.00350359      -0.00445840      -0.23293559
Pd       0.00000000       7.38208422       3.44535000  F       0.00000000       0.00000000       0.00000000      -0.00322425      -0.00272297       0.04466367
Pd      10.43991375       6.78245558       5.40242713  F       0.00000000       0.00000000       0.00000000      -0.03665287      -0.02857427       0.23655721
Pd      12.27066938       7.43115040       7.38195965  T       0.00000000       0.00000000       0.00000000      -0.00424250      -0.00137059       0.00048870
Pd       4.92138948      11.07312632       3.44535000  F       0.00000000       0.00000000       0.00000000      -0.06534545       0.03222614       0.04076767
Pd       1.23034737       9.84277895       3.44535000  F       0.00000000       0.00000000       0.00000000       0.08043335       0.01129686       0.12336810
Pd      11.67120661       9.23591801       5.37701028  F       0.00000000       0.00000000       0.00000000      -0.07503620       0.03883570       0.35375898
Pd       1.24417614       9.82021672       7.30130105  T       0.00000000       0.00000000       0.00000000      -0.00729723      -0.00171764       0.00741884
Pd       0.61517368      11.68830001       1.50000000  F       0.00000000       0.00000000       0.00000000       0.00079190       0.00389285      -0.23243025
Pd       2.46069474       0.00000000       3.44535000  F       0.00000000       0.00000000       0.00000000       0.03455704      -0.04024805       0.10401789
Pd       2.40916642       0.00651510       7.41392868  T       0.00000000       0.00000000       0.00000000      -0.00291450       0.00085724      -0.01478587
Pd       9.24954561      10.45378341       5.44579684  T       0.00000000       0.00000000       0.00000000      -0.01708772       0.00823592      -0.00195117
Pd       3.69822800       8.60679001       7.51261624  T       0.00000000       0.00000000       0.00000000      -0.01350102      -0.00573174      -0.01324227
Pd       4.30621579       0.61517368       1.50000000  F       0.00000000       0.00000000       0.00000000       0.00373676      -0.00488814      -0.23414986
Pd      11.07312632       4.92138948       3.44535000  F       0.00000000       0.00000000       0.00000000      -0.08905946       0.02358031       0.06848341
Pd       4.30621579       6.76691053       1.50000000  F       0.00000000       0.00000000       0.00000000       0.00289610      -0.00585967      -0.23234649
Pd       3.65603630       2.47428801       7.51577923  T       0.00000000       0.00000000       0.00000000      -0.00263544       0.00517067      -0.00782049
Pd       2.41162603       6.14789539       7.41179935  T       0.00000000       0.00000000       0.00000000      -0.01081047       0.00811605      -0.00042690
Pd       0.60433818       5.55187436       5.37993065  F       0.00000000       0.00000000       0.00000000      -0.00989974      -0.06097389       0.17123288
Pd       2.46069474       6.15173685       3.44535000  F       0.00000000       0.00000000       0.00000000       0.03237215      -0.03794635       0.11411569
Pd       0.61517368       5.53656316       1.50000000  F       0.00000000       0.00000000       0.00000000       0.00204692       0.00514005      -0.23208275
Pd       1.17538319       3.67759851       7.34752520  T       0.00000000       0.00000000       0.00000000      -0.00815658      -0.00832364      -0.00127910
Pd      11.67123156       3.08419612       5.37703229  F       0.00000000       0.00000000       0.00000000      -0.03708390       0.04894448       0.30269499
Pd       6.86649985       6.62704536       9.92183042  T       0.00000000       0.00000000       0.00000000       0.00140327      -0.02828999      -0.01056257
Pd       1.23034737       3.69104211       3.44535000  F       0.00000000       0.00000000       0.00000000       0.06889853       0.00524858       0.12323166
Pd      12.27701234       1.33061521       7.40261915  T       0.00000000       0.00000000       0.00000000       0.00723227      -0.02589214      -0.00511691
Pd      10.43990395       0.63072067       5.40242717  F       0.00000000       0.00000000       0.00000000       0.00321217      -0.01201138       0.25375331
Pd       0.00000000       1.23034737       3.44535000  F       0.00000000       0.00000000       0.00000000      -0.00161203       0.00010434       0.06005787
Pd       1.84552105       1.84552105       1.50000000  F       0.00000000       0.00000000       0.00000000      -0.00201979       0.01097584      -0.23282944
Pd      10.45795264       0.61517368       1.50000000  F       0.00000000       0.00000000       0.00000000       0.00310552      -0.00694630      -0.23273915
Pd      11.10066883      11.17730153       7.43643480  T       0.00000000       0.00000000       0.00000000       0.00880575      -0.02202406       0.01657537
Pd       3.09874723      10.45441491       5.42696339  T       0.00000000       0.00000000       0.00000000       0.01187770       0.01106181      -0.00300280
Pd       3.69104211       2.46069474       3.44535000  F       0.00000000       0.00000000       0.00000000      -0.06675495       0.03425144       0.08424681
Pd       1.85442396       1.83305046       5.40626716  F       0.00000000       0.00000000       0.00000000       0.06259737       0.03174253       0.10297552
Pd      11.68830001       3.07586842       1.50000000  F       0.00000000       0.00000000       0.00000000      -0.00053259      -0.00952934      -0.23368651
Pd       0.74665560       0.48600903       9.91282570  T       0.00000000       0.00000000       0.00000000       0.00559305       0.00861609      -0.00079696
Pd       2.25459818       3.48851527       9.76607411  T       0.00000000       0.00000000       0.00000000       0.01031365      -0.00299014       0.00591205
Pd       3.81969327       6.68093000       9.93082545  T       0.00000000       0.00000000       0.00000000      -0.00461297      -0.01944256      -0.02909849
Pd       6.15173685       1.23034737       3.44535000  F       0.00000000       0.00000000       0.00000000       0.00023728       0.00430459       0.05582913
Pd       4.28818081       0.63072761       5.40241929  F       0.00000000       0.00000000       0.00000000      -0.03956953       0.01441336       0.19256776
Pd       6.10023983       1.30278356       7.38870505  T       0.00000000       0.00000000       0.00000000       0.00502824       0.01117406       0.00474571
Pd       5.53656316       3.07586842       1.50000000  F       0.00000000       0.00000000       0.00000000      -0.00035868      -0.00940393      -0.23289158
Pd       1.85444455       7.98478761       5.40627529  F       0.00000000       0.00000000       0.00000000       0.11900714      -0.03234230       0.03224624
Pd       5.38208520       3.37294843       9.66826519  T       0.00000000       0.00000000       0.00000000       0.00323263      -0.02467785       0.01494339
Pd       3.07586842      10.45795264       1.50000000  F       0.00000000       0.00000000       0.00000000      -0.00679054      -0.00289545      -0.22764984
Pd       3.07586842       4.30621579       1.50000000  F       0.00000000       0.00000000       0.00000000      -0.00459364      -0.00367212      -0.22833426
Pd       3.08769948       4.29871032       5.43067224  T       0.00000000       0.00000000       0.00000000      -0.00795742       0.00504776       0.00397327
Pd      11.08762250       4.97800464       7.45114386  T       0.00000000       0.00000000       0.00000000       0.00419026       0.02226876       0.00102865
Pd      11.07312632      11.07312632       3.44535000  F       0.00000000       0.00000000       0.00000000      -0.09097425       0.02430830       0.05862694
Pd      10.01419746       0.50691422       9.90531608  T       0.00000000       0.00000000       0.00000000      -0.00057567       0.04306244      -0.00534893
Pd       6.91807467       0.49822804       9.90756289  T       0.00000000       0.00000000       0.00000000       0.00369574       0.02340156       0.00798971
Pd       8.38627723       9.60473208       9.78278373  T       0.00000000       0.00000000       0.00000000       0.01407824      -0.01334913      -0.00444642
Pd       0.73557716       6.73037704       9.99086903  T       0.00000000       0.00000000       0.00000000      -0.01186861      -0.02951188      -0.02053152
Pd       5.38067947       9.52953351       9.71913330  T       0.00000000       0.00000000       0.00000000      -0.01055361      -0.02178084       0.02184034
Pd      11.52404845       3.42388269       9.72279665  T       0.00000000       0.00000000       0.00000000       0.01220437      -0.02124499       0.01147403
Pd       8.50920495       3.46947682       9.76503734  T       0.00000000       0.00000000       0.00000000      -0.00522631      -0.01541136      -0.01422659
Pd       9.91586404       6.68144196      10.05281972  T       0.00000000       0.00000000       0.00000000      -0.00117731       0.01846260       0.01130922
Pd       3.84686144       0.54961743       9.91398095  T       0.00000000       0.00000000       0.00000000      -0.02238109      -0.00008603      -0.00520281
Pd       2.37981986       9.61882653       9.76703707  T       0.00000000       0.00000000       0.00000000      -0.00678547      -0.01643035      -0.00622431
Pd       4.92204443      11.11797397       7.41590950  T       0.00000000       0.00000000       0.00000000       0.01878580       0.00808940      -0.01509293
Pd      11.78773169       9.34456223       9.29453389  T       0.00000000       0.00000000       0.00000000      -0.00645838       0.01049833      -0.01332101
C       11.26831142       8.47877476      12.20586755  T       0.00000000       0.00000000       0.00000000      -0.00590993      -0.01878890       0.02520842
O       12.01152044       9.36542153      12.58283060  T       0.00000000       0.00000000       0.00000000       0.00227270      -0.00639233      -0.01353024
O        8.31334857      10.49250220      12.53744759  T       0.00000000       0.00000000       0.00000000      -0.00266652       0.00053491      -0.02364147
C        8.99153505      11.39828138      13.00339606  T       0.00000000       0.00000000       0.00000000       0.01820774      -0.00788487       0.00066228
H        8.86813643      11.72662422      14.06501753  T       0.00000000       0.00000000       0.00000000       0.00828703       0.00506755       0.00469328
H       10.43605703       8.04871355      12.80400098  T       0.00000000       0.00000000       0.00000000       0.01360064      -0.01776602      -0.01125789
H        9.75627555      11.94501389      12.39378268  T       0.00000000       0.00000000       0.00000000      -0.01413319      -0.00107547      -0.01950047
