119
Lattice="12.303473692417112 0.0 0.0 0.0 12.303473692417114 0.0 0.0 0.0 29.165420746594243" Properties=species:S:1:pos:R:3:move_mask:L:1:momenta:R:3:forces:R:3 idx=8879 E_MACE=-600.5641129842875 d_min=1.9167743848088246 d_reactive=2.3687812141713747 E=-600.5641129842875 converged=T n_steps=110 d_z=1.1566499793364429 fingerprint="_JSON [1.11, 1.11, 1.11, 1.16, 1.42, 1.8, 1.8, 1.81, 2.03, 2.1, 2.11, 9.19, 9.23, 9.93, 9.96, 10.11, 10.12, 10.75, 10.83, 10.88, 10.92]" dE_rel_meV=1101.3760805251422 energy=-600.5641129842875 stress="0.005429400042385756 0.0003423571405458071 -6.909243450372569e-05 0.0003423571405458071 0.004592387024843334 -6.302432185443661e-05 -6.909243450372569e-05 -6.302432185443661e-05 -0.003248524537530103" pbc="T T T"
O        8.44524080      11.61606330       9.31977049  T       0.00000000       0.00000000       0.00000000       0.00908650       0.00894954       0.00492887
O       11.50802467       5.36533737       9.36988521  T       0.00000000       0.00000000       0.00000000       0.01340124      -0.01673235      -0.00466088
O       11.53697453       1.62348927      10.59491164  T       0.00000000       0.00000000       0.00000000       0.00825029      -0.00449438      -0.02036821
O       11.49744105      11.52495674       9.38805766  T       0.00000000       0.00000000       0.00000000      -0.02426652      -0.00946755      -0.01612117
O        8.44065128       7.72887629      10.57075279  T       0.00000000       0.00000000       0.00000000      -0.00958196       0.00996751       0.00195484
O        5.31149594      11.53841679       9.36264897  T       0.00000000       0.00000000       0.00000000       0.00481748      -0.02543134      -0.00264437
O        5.39178715       7.77010414      10.56905405  T       0.00000000       0.00000000       0.00000000       0.00604571       0.00730833      -0.01115110
O        8.46895132       5.40541297       9.33635755  T       0.00000000       0.00000000       0.00000000      -0.00641638       0.02074477      -0.01496006
O       11.55092942       7.76263345      10.57299884  T       0.00000000       0.00000000       0.00000000      -0.02494547       0.00564241      -0.01510416
O        2.31616384       5.41952726       9.35162811  T       0.00000000       0.00000000       0.00000000       0.00276833      -0.00127201      -0.00307178
O        2.26867018       1.66279343      10.55923448  T       0.00000000       0.00000000       0.00000000      -0.01180447      -0.01653348      -0.01702307
O        2.30207618      11.57759477       9.36155763  T       0.00000000       0.00000000       0.00000000       0.01663020       0.01000045      -0.00926246
O        5.33838182       5.37114455       9.37033957  T       0.00000000       0.00000000       0.00000000       0.01825818       0.01520044      -0.01437764
O        5.35573088       1.64298356      10.59761377  T       0.00000000       0.00000000       0.00000000       0.02011396       0.01003385      -0.00752148
O        2.28235190       7.80633701      10.54295597  T       0.00000000       0.00000000       0.00000000       0.01236243       0.00054755      -0.00326464
O        8.45765654       1.67968473      10.55189531  T       0.00000000       0.00000000       0.00000000      -0.01638507      -0.00997192       0.02797226
Pd       5.53656316       9.22760527       1.50000000  F       0.00000000       0.00000000       0.00000000       0.00004164      -0.00924336      -0.23151588
Pd       6.11414431       7.46798690       7.38471090  T       0.00000000       0.00000000       0.00000000      -0.01515657      -0.02454499      -0.00311998
Pd       4.28815433       6.78245218       5.40241719  F       0.00000000       0.00000000       0.00000000      -0.04664679       0.00437499       0.17710811
Pd       6.15173685       7.38208422       3.44535000  F       0.00000000       0.00000000       0.00000000      -0.00561742       0.00439757       0.05262806
Pd       7.33337570       3.65479652       7.33483753  T       0.00000000       0.00000000       0.00000000       0.00004737       0.00645679       0.00401028
Pd       5.51948843       3.08419342       5.37702261  F       0.00000000       0.00000000       0.00000000      -0.02944175      -0.07205968       0.29766010
Pd       6.76691053       5.53656316       1.50000000  F       0.00000000       0.00000000       0.00000000       0.00198774       0.00505646      -0.23219299
Pd       7.38208422       9.84277895       3.44535000  F       0.00000000       0.00000000       0.00000000       0.07394644       0.00954966       0.11799103
Pd       7.99725790       7.99725790       1.50000000  F       0.00000000       0.00000000       0.00000000      -0.00209178       0.01214066      -0.23170372
Pd       5.51951598       9.23590192       5.37700272  F       0.00000000       0.00000000       0.00000000       0.00494044       0.01604470       0.28909381
Pd       8.00616182       7.98477587       5.40628129  F       0.00000000       0.00000000       0.00000000       0.07239611       0.06346817       0.18038422
Pd       6.76691053      11.68830001       1.50000000  F       0.00000000       0.00000000       0.00000000       0.00279092       0.00321200      -0.23254703
Pd       8.61243158       0.00000000       3.44535000  F       0.00000000       0.00000000       0.00000000       0.03679681      -0.06028866       0.12544639
Pd       6.75606179      11.70364973       5.37992114  F       0.00000000       0.00000000       0.00000000       0.02203650      -0.06232673       0.18168202
Pd       8.55455281      -0.00524592       7.39016505  T       0.00000000       0.00000000       0.00000000      -0.00602008       0.00181557       0.00830568
Pd       9.84277895       8.61243158       3.44535000  F       0.00000000       0.00000000       0.00000000      -0.06429163       0.04160281       0.08858208
Pd       7.38208422       3.69104211       3.44535000  F       0.00000000       0.00000000       0.00000000       0.06626621       0.00883259       0.12519083
Pd       3.69104211       8.61243158       3.44535000  F       0.00000000       0.00000000       0.00000000      -0.07111473       0.03250790       0.07906711
Pd       9.80079476       8.62911725       7.53471687  T       0.00000000       0.00000000       0.00000000      -0.00225211       0.00114368      -0.00221903
Pd       9.22760527      10.45795264       1.50000000  F       0.00000000       0.00000000       0.00000000      -0.00505132      -0.00191099      -0.22476835
Pd       7.35379118       9.80236176       7.40031814  T       0.00000000       0.00000000       0.00000000       0.01376704       0.00682213       0.00979798
Pd       1.84552105       7.99725790       1.50000000  F       0.00000000       0.00000000       0.00000000      -0.00168315       0.01220313      -0.23258603
Pd      11.68830001       9.22760527       1.50000000  F       0.00000000       0.00000000       0.00000000      -0.00056201      -0.00943926      -0.23143002
Pd       0.60431863      11.70356305       5.37989931  F       0.00000000       0.00000000       0.00000000       0.03268357      -0.05063906       0.15718226
Pd       8.61243158       6.15173685       3.44535000  F       0.00000000       0.00000000       0.00000000       0.03446683      -0.04528069       0.10531194
Pd       6.75605293       5.55187564       5.37990856  F       0.00000000       0.00000000       0.00000000       0.03733005      -0.03127068       0.12257071
Pd       8.55974524       6.14936124       7.40406751  T       0.00000000       0.00000000       0.00000000      -0.00108043       0.00467414       0.00736803
Pd       7.99725790       1.84552105       1.50000000  F       0.00000000       0.00000000       0.00000000      -0.00192991       0.01360513      -0.23502949
Pd       9.84277895       2.46069474       3.44535000  F       0.00000000       0.00000000       0.00000000      -0.06072807       0.03277646       0.07942521
Pd       8.00617313       1.83308050       5.40627808  F       0.00000000       0.00000000       0.00000000       0.02602694      -0.00412981       0.08688326
Pd       9.82791833       2.45951380       7.49781882  T       0.00000000       0.00000000       0.00000000       0.00333964      -0.00154873       0.00468343
Pd       9.22760527       4.30621579       1.50000000  F       0.00000000       0.00000000       0.00000000      -0.00610681      -0.00216424      -0.22765616
Pd       4.92138948       4.92138948       3.44535000  F       0.00000000       0.00000000       0.00000000      -0.08458947       0.03614422       0.05164776
Pd       9.24031666       4.30124152       5.42825738  T       0.00000000       0.00000000       0.00000000       0.00864082      -0.00167011       0.00820599
Pd       4.92821940       4.96557127       7.39367694  T       0.00000000       0.00000000       0.00000000      -0.00250352       0.00371999      -0.00315608
Pd      10.45795264       6.76691053       1.50000000  F       0.00000000       0.00000000       0.00000000       0.00269689      -0.00509420      -0.23311633
Pd       0.00000000       7.38208422       3.44535000  F       0.00000000       0.00000000       0.00000000      -0.00471069       0.00712939       0.05618032
Pd      10.43991375       6.78245558       5.40242713  F       0.00000000       0.00000000       0.00000000      -0.03681442       0.00933255       0.18891782
Pd      12.25062588       7.46120376       7.39441423  T       0.00000000       0.00000000       0.00000000       0.01369892       0.00006019       0.00308465
Pd       4.92138948      11.07312632       3.44535000  F       0.00000000       0.00000000       0.00000000      -0.07635629       0.03039268       0.06030768
Pd       1.23034737       9.84277895       3.44535000  F       0.00000000       0.00000000       0.00000000       0.07231182       0.01196895       0.11760388
Pd      11.67120661       9.23591801       5.37701028  F       0.00000000       0.00000000       0.00000000      -0.05120971       0.01034407       0.27844371
Pd       1.18591941       9.80419788       7.34717737  T       0.00000000       0.00000000       0.00000000      -0.00886275      -0.00048828       0.01295119
Pd       0.61517368      11.68830001       1.50000000  F       0.00000000       0.00000000       0.00000000       0.00363442       0.00496261      -0.23424125
Pd       2.46069474       0.00000000       3.44535000  F       0.00000000       0.00000000       0.00000000       0.02590803      -0.04431897       0.10071601
Pd       2.40854173      -0.01407713       7.41297919  T       0.00000000       0.00000000       0.00000000      -0.01263454       0.00171659      -0.00196881
Pd       9.23560842      10.44261941       5.44146996  T       0.00000000       0.00000000       0.00000000       0.00622533      -0.00649998      -0.00052218
Pd       3.66985932       8.61510300       7.50922275  T       0.00000000       0.00000000       0.00000000       0.00440378      -0.00748545      -0.00164695
Pd       4.30621579       0.61517368       1.50000000  F       0.00000000       0.00000000       0.00000000       0.00160678      -0.00657149      -0.23407014
Pd      11.07312632       4.92138948       3.44535000  F       0.00000000       0.00000000       0.00000000      -0.07706241       0.02732613       0.04718196
Pd       4.30621579       6.76691053       1.50000000  F       0.00000000       0.00000000       0.00000000       0.00388724      -0.00576528      -0.23173414
Pd       3.67117809       2.45655397       7.49727096  T       0.00000000       0.00000000       0.00000000      -0.00195076      -0.00796017      -0.00033664
Pd       2.39951038       6.14286594       7.40826893  T       0.00000000       0.00000000       0.00000000      -0.00047188       0.01200457       0.00030961
Pd       0.60433818       5.55187436       5.37993065  F       0.00000000       0.00000000       0.00000000       0.03776772      -0.03595527       0.14404743
Pd       2.46069474       6.15173685       3.44535000  F       0.00000000       0.00000000       0.00000000       0.03221844      -0.04298820       0.11339955
Pd       0.61517368       5.53656316       1.50000000  F       0.00000000       0.00000000       0.00000000       0.00133687       0.00457617      -0.23300451
Pd       1.18508511       3.65041860       7.34958253  T       0.00000000       0.00000000       0.00000000      -0.00762866      -0.00105154       0.00926839
Pd      11.67123156       3.08419612       5.37703229  F       0.00000000       0.00000000       0.00000000      -0.01554211      -0.01672759       0.23870887
Pd       6.90053499       6.62323682       9.89026096  T       0.00000000       0.00000000       0.00000000       0.00123165      -0.00442165       0.00703797
Pd       1.23034737       3.69104211       3.44535000  F       0.00000000       0.00000000       0.00000000       0.07045493       0.00849170       0.12000439
Pd      12.27216784       1.30292903       7.39465302  T       0.00000000       0.00000000       0.00000000      -0.00170962      -0.00083761       0.00768454
Pd      10.43990395       0.63072067       5.40242717  F       0.00000000       0.00000000       0.00000000      -0.01920876      -0.02626429       0.17104442
Pd       0.00000000       1.23034737       3.44535000  F       0.00000000       0.00000000       0.00000000      -0.00491583       0.00436249       0.05835309
Pd       1.84552105       1.84552105       1.50000000  F       0.00000000       0.00000000       0.00000000      -0.00180597       0.01224167      -0.23351586
Pd      10.45795264       0.61517368       1.50000000  F       0.00000000       0.00000000       0.00000000       0.00198008      -0.00646863      -0.23017969
Pd      11.08236655      11.12135264       7.40587864  T       0.00000000       0.00000000       0.00000000       0.00748529      -0.01016656       0.01405078
Pd       3.08752700      10.45206272       5.42949277  T       0.00000000       0.00000000       0.00000000       0.00127680      -0.01071967       0.01274907
Pd       3.69104211       2.46069474       3.44535000  F       0.00000000       0.00000000       0.00000000      -0.06104632       0.03315639       0.09302897
Pd       1.85442396       1.83305046       5.40626716  F       0.00000000       0.00000000       0.00000000       0.07433094      -0.01614738       0.08189065
Pd      11.68830001       3.07586842       1.50000000  F       0.00000000       0.00000000       0.00000000      -0.00032896      -0.00906577      -0.23189161
Pd       0.74419273       0.48392284       9.92671234  T       0.00000000       0.00000000       0.00000000       0.00671088       0.02222188       0.01456040
Pd       2.31342727       3.44270898       9.76376206  T       0.00000000       0.00000000       0.00000000       0.00190021      -0.01009586      -0.00586198
Pd       3.84341081       6.66704724       9.91820678  T       0.00000000       0.00000000       0.00000000      -0.02063643       0.01751196      -0.00530615
Pd       6.15173685       1.23034737       3.44535000  F       0.00000000       0.00000000       0.00000000      -0.00787123       0.01402546       0.04261996
Pd       4.28818081       0.63072761       5.40241929  F       0.00000000       0.00000000       0.00000000       0.03440893       0.01826004       0.24910782
Pd       6.13398924       1.29884341       7.45073158  T       0.00000000       0.00000000       0.00000000      -0.00209097      -0.00324970       0.01071435
Pd       5.53656316       3.07586842       1.50000000  F       0.00000000       0.00000000       0.00000000       0.00019825      -0.00869019      -0.23330013
Pd       1.85444455       7.98478761       5.40627529  F       0.00000000       0.00000000       0.00000000       0.06318608      -0.00807787       0.10475890
Pd       5.37662192       3.35047612       9.65553163  T       0.00000000       0.00000000       0.00000000       0.02396898      -0.02783823       0.00509150
Pd       3.07586842      10.45795264       1.50000000  F       0.00000000       0.00000000       0.00000000      -0.00530834      -0.00252540      -0.22713481
Pd       3.07586842       4.30621579       1.50000000  F       0.00000000       0.00000000       0.00000000      -0.00512321      -0.00332163      -0.22781654
Pd       3.08637066       4.29963147       5.43075652  T       0.00000000       0.00000000       0.00000000       0.01335121       0.00232827      -0.00120699
Pd      11.08711520       4.95516397       7.39531094  T       0.00000000       0.00000000       0.00000000       0.00704811       0.00337548       0.00561489
Pd      11.07312632      11.07312632       3.44535000  F       0.00000000       0.00000000       0.00000000      -0.09849614       0.02270633       0.07529231
Pd       9.99293038       0.52747630       9.91926462  T       0.00000000       0.00000000       0.00000000      -0.00806687      -0.00592319      -0.01294020
Pd       6.88645220       0.48955472       9.97402883  T       0.00000000       0.00000000       0.00000000      -0.01792488       0.04035362       0.00203639
Pd       8.48859288       9.62979491       9.91002167  T       0.00000000       0.00000000       0.00000000       0.00124426      -0.03156567       0.01043678
Pd       0.75908903       6.62678575       9.91175804  T       0.00000000       0.00000000       0.00000000       0.00576514       0.01741651       0.00706423
Pd       5.35558678       9.52231456       9.69814680  T       0.00000000       0.00000000       0.00000000      -0.00899557       0.00666671      -0.01169185
Pd      11.54207816       3.35411644       9.69229867  T       0.00000000       0.00000000       0.00000000       0.01536186       0.01557081      -0.02084964
Pd       8.48262819       3.43649980       9.74112007  T       0.00000000       0.00000000       0.00000000      -0.01101604       0.02320890      -0.00381715
Pd      10.00734091       6.65004420       9.90636635  T       0.00000000       0.00000000       0.00000000      -0.00093292       0.00921569       0.00156665
Pd       3.82330187       0.52015297       9.93981520  T       0.00000000       0.00000000       0.00000000      -0.03113722      -0.00901367      -0.01988464
Pd       2.31599392       9.59688008       9.76748202  T       0.00000000       0.00000000       0.00000000      -0.00312031      -0.01410097      -0.00640873
Pd       4.93868479      11.10797802       7.39480757  T       0.00000000       0.00000000       0.00000000       0.01139564       0.00553673      -0.00514341
Pd      11.56959617       9.49746765       9.66641814  T       0.00000000       0.00000000       0.00000000       0.00601292       0.01506083       0.00129036
C        8.67528749      10.06894443      11.76644750  T       0.00000000       0.00000000       0.00000000       0.01065768      -0.00492411      -0.04053337
O        9.03833839      10.07395597      12.86369849  T       0.00000000       0.00000000       0.00000000       0.03461885       0.00796161       0.03122445
O        7.00630946      -0.55361036      11.75426375  T       0.00000000       0.00000000       0.00000000      -0.01337265       0.00591106      -0.00440227
C        6.87930463       0.18793829      12.95497881  T       0.00000000       0.00000000       0.00000000      -0.00873069      -0.00021265       0.03152013
H        7.03494732      -0.53260820      13.78293003  T       0.00000000       0.00000000       0.00000000      -0.00652990       0.01720515      -0.01147255
H        7.63910290       0.99081765      13.04436598  T       0.00000000       0.00000000       0.00000000      -0.02216884       0.00081803      -0.00258877
H        5.86855830       0.63109694      13.05550428  T       0.00000000       0.00000000       0.00000000       0.00652505       0.00259230       0.00909673
