119
Lattice="12.303473692417112 0.0 0.0 0.0 12.303473692417114 0.0 0.0 0.0 29.165420746594243" Properties=species:S:1:pos:R:3:move_mask:L:1:momenta:R:3:forces:R:3 idx=8079 E_MACE=-600.7868201558618 d_min=1.8993402032717888 d_reactive=2.8582945072615487 E=-600.7868201558618 converged=T n_steps=194 d_z=1.0421208599673903 fingerprint="_JSON [1.11, 1.11, 1.11, 1.15, 1.41, 1.8, 1.8, 1.81, 2.02, 2.11, 2.11, 2.86, 3.28, 3.47, 3.71, 3.88, 3.97, 4.41, 4.53, 4.76, 4.84]" dE_rel_meV=878.6689089507718 energy=-600.7868201558618 stress="0.005634152417894332 0.0003237345467007773 -0.00011499536184787689 0.0003237345467007773 0.004762081425160783 0.00013915859442257297 -0.00011499536184787689 0.00013915859442257297 -0.0032994778808185" pbc="T T T"
O        8.45666027      11.65383496       9.32372639  T       0.00000000       0.00000000       0.00000000       0.01235370      -0.00029780       0.01176108
O       11.48795554       5.41489109       9.36361863  T       0.00000000       0.00000000       0.00000000       0.00180057      -0.00957772       0.00356377
O       11.54398622       1.67270910      10.58096311  T       0.00000000       0.00000000       0.00000000      -0.00003653       0.00320634       0.01157311
O       11.49563484      11.57324496       9.38087233  T       0.00000000       0.00000000       0.00000000       0.02152219      -0.01434374      -0.00431115
O        8.42441716       7.77355323      10.60003804  T       0.00000000       0.00000000       0.00000000       0.00827106       0.00720018      -0.00921600
O        5.32596377      11.59105839       9.31395396  T       0.00000000       0.00000000       0.00000000      -0.01401447       0.00182729       0.00457642
O        5.35355311       7.80290259      10.62228982  T       0.00000000       0.00000000       0.00000000       0.01061408      -0.02345940      -0.00037966
O        8.43304320       5.46397390       9.35143849  T       0.00000000       0.00000000       0.00000000       0.00667774      -0.00663532      -0.00238256
O       11.52833871       7.80621297      10.57690873  T       0.00000000       0.00000000       0.00000000       0.00053894       0.00445994       0.00255129
O        2.30026811       5.46822894       9.35009126  T       0.00000000       0.00000000       0.00000000      -0.00037696      -0.01008105       0.00326108
O        2.27614635       1.70307118      10.54823537  T       0.00000000       0.00000000       0.00000000       0.00245603       0.01016744       0.01741746
O        2.30729076      11.61752259       9.36088209  T       0.00000000       0.00000000       0.00000000      -0.01246780       0.01139080       0.00077205
O        5.31896312       5.43291566       9.37052823  T       0.00000000       0.00000000       0.00000000       0.00532491       0.00061837      -0.01861072
O        5.37706312       1.68058462      10.55858012  T       0.00000000       0.00000000       0.00000000       0.00404552       0.00048939       0.02196388
O        2.25711595       7.85182422      10.55800634  T       0.00000000       0.00000000       0.00000000      -0.00175757      -0.00584664       0.00634063
O        8.43017846       1.70919466      10.54322349  T       0.00000000       0.00000000       0.00000000      -0.00523068      -0.01188134       0.00317553
Pd       5.53656316       9.22760527       1.50000000  F       0.00000000       0.00000000       0.00000000       0.00072731      -0.00945756      -0.22975947
Pd       6.11415411       7.46685838       7.37836514  T       0.00000000       0.00000000       0.00000000       0.00387808       0.00654078      -0.00819112
Pd       4.28815433       6.78245218       5.40241719  F       0.00000000       0.00000000       0.00000000      -0.04957071       0.05268493       0.21093766
Pd       6.15173685       7.38208422       3.44535000  F       0.00000000       0.00000000       0.00000000      -0.00664904       0.00218731       0.04350495
Pd       7.32389226       3.65164465       7.35301060  T       0.00000000       0.00000000       0.00000000      -0.00009817      -0.00091890       0.00018979
Pd       5.51948843       3.08419342       5.37702261  F       0.00000000       0.00000000       0.00000000      -0.05206507       0.02879935       0.25038917
Pd       6.76691053       5.53656316       1.50000000  F       0.00000000       0.00000000       0.00000000       0.00159029       0.00613783      -0.23337418
Pd       7.38208422       9.84277895       3.44535000  F       0.00000000       0.00000000       0.00000000       0.07488830       0.01921552       0.11567111
Pd       7.99725790       7.99725790       1.50000000  F       0.00000000       0.00000000       0.00000000      -0.00256378       0.01223367      -0.23238289
Pd       5.51951598       9.23590192       5.37700272  F       0.00000000       0.00000000       0.00000000       0.01840932       0.00164322       0.31474468
Pd       8.00616182       7.98477587       5.40628129  F       0.00000000       0.00000000       0.00000000       0.05194979       0.09632555       0.20994289
Pd       6.76691053      11.68830001       1.50000000  F       0.00000000       0.00000000       0.00000000       0.00297013       0.00473770      -0.23079314
Pd       8.61243158       0.00000000       3.44535000  F       0.00000000       0.00000000       0.00000000       0.03940556      -0.06612396       0.12746634
Pd       6.75606179      11.70364973       5.37992114  F       0.00000000       0.00000000       0.00000000       0.05457499      -0.14296436       0.13768320
Pd       8.55737398       0.00078923       7.37826061  T       0.00000000       0.00000000       0.00000000       0.00155177      -0.01501531       0.00279854
Pd       9.84277895       8.61243158       3.44535000  F       0.00000000       0.00000000       0.00000000      -0.06567850       0.03897910       0.08568479
Pd       7.38208422       3.69104211       3.44535000  F       0.00000000       0.00000000       0.00000000       0.07351992       0.01254002       0.12960958
Pd       3.69104211       8.61243158       3.44535000  F       0.00000000       0.00000000       0.00000000      -0.08119976       0.02829447       0.06822645
Pd       9.80368452       8.63105643       7.53517824  T       0.00000000       0.00000000       0.00000000      -0.01044176       0.00091032      -0.00333390
Pd       9.22760527      10.45795264       1.50000000  F       0.00000000       0.00000000       0.00000000      -0.00539819      -0.00144719      -0.22525746
Pd       7.35426003       9.80246187       7.41801982  T       0.00000000       0.00000000       0.00000000       0.01660520       0.00459210      -0.00612777
Pd       1.84552105       7.99725790       1.50000000  F       0.00000000       0.00000000       0.00000000      -0.00198189       0.01211994      -0.23285506
Pd      11.68830001       9.22760527       1.50000000  F       0.00000000       0.00000000       0.00000000      -0.00138591      -0.00984021      -0.23130793
Pd       0.60431863      11.70356305       5.37989931  F       0.00000000       0.00000000       0.00000000       0.04833661      -0.07143310       0.16265869
Pd       8.61243158       6.15173685       3.44535000  F       0.00000000       0.00000000       0.00000000       0.03783038      -0.05552888       0.11088792
Pd       6.75605293       5.55187564       5.37990856  F       0.00000000       0.00000000       0.00000000       0.04268030      -0.06751102       0.13142883
Pd       8.55158442       6.15467240       7.40784857  T       0.00000000       0.00000000       0.00000000      -0.00591132      -0.00286554      -0.00283402
Pd       7.99725790       1.84552105       1.50000000  F       0.00000000       0.00000000       0.00000000      -0.00284361       0.01270864      -0.23307338
Pd       9.84277895       2.46069474       3.44535000  F       0.00000000       0.00000000       0.00000000      -0.06878025       0.03671021       0.09208935
Pd       8.00617313       1.83308050       5.40627808  F       0.00000000       0.00000000       0.00000000       0.06838282       0.04957111       0.05014981
Pd       9.82022052       2.47091515       7.51299153  T       0.00000000       0.00000000       0.00000000       0.00121121       0.00383570      -0.00218000
Pd       9.22760527       4.30621579       1.50000000  F       0.00000000       0.00000000       0.00000000      -0.00483125      -0.00179100      -0.22805197
Pd       4.92138948       4.92138948       3.44535000  F       0.00000000       0.00000000       0.00000000      -0.08118368       0.02054393       0.06081046
Pd       9.23660426       4.29905245       5.43453501  T       0.00000000       0.00000000       0.00000000      -0.00025031       0.00736452       0.00289948
Pd       4.92771323       4.97341283       7.39847259  T       0.00000000       0.00000000       0.00000000      -0.00209875      -0.00179740      -0.00629798
Pd      10.45795264       6.76691053       1.50000000  F       0.00000000       0.00000000       0.00000000       0.00335158      -0.00484392      -0.23099719
Pd       0.00000000       7.38208422       3.44535000  F       0.00000000       0.00000000       0.00000000      -0.00965474       0.00456422       0.04920895
Pd      10.43991375       6.78245558       5.40242713  F       0.00000000       0.00000000       0.00000000      -0.06014292       0.00827466       0.18692043
Pd      12.25387441       7.46608636       7.38672420  T       0.00000000       0.00000000       0.00000000      -0.00377021      -0.01049072       0.00734388
Pd       4.92138948      11.07312632       3.44535000  F       0.00000000       0.00000000       0.00000000      -0.08965234       0.02571891       0.06544861
Pd       1.23034737       9.84277895       3.44535000  F       0.00000000       0.00000000       0.00000000       0.07617004       0.01300113       0.12565740
Pd      11.67120661       9.23591801       5.37701028  F       0.00000000       0.00000000       0.00000000      -0.03241766       0.03218191       0.28630531
Pd       1.19115783       9.80232081       7.35866072  T       0.00000000       0.00000000       0.00000000       0.00184675      -0.00183971      -0.01546318
Pd       0.61517368      11.68830001       1.50000000  F       0.00000000       0.00000000       0.00000000       0.00279751       0.00538100      -0.23460356
Pd       2.46069474       0.00000000       3.44535000  F       0.00000000       0.00000000       0.00000000       0.04009265      -0.05394226       0.12302743
Pd       2.40898690      -0.00929385       7.40511570  T       0.00000000       0.00000000       0.00000000       0.00145444      -0.00528195       0.01340683
Pd       9.23486669      10.44023317       5.44126488  T       0.00000000       0.00000000       0.00000000       0.01165423       0.00039044       0.00298567
Pd       3.69348570       8.63291012       7.55278709  T       0.00000000       0.00000000       0.00000000      -0.00112599      -0.00348730      -0.00614865
Pd       4.30621579       0.61517368       1.50000000  F       0.00000000       0.00000000       0.00000000       0.00303994      -0.00736144      -0.23125302
Pd      11.07312632       4.92138948       3.44535000  F       0.00000000       0.00000000       0.00000000      -0.08699417       0.02179088       0.05923170
Pd       4.30621579       6.76691053       1.50000000  F       0.00000000       0.00000000       0.00000000       0.00403354      -0.00533279      -0.23221312
Pd       3.66736234       2.47188531       7.51219311  T       0.00000000       0.00000000       0.00000000      -0.00338274       0.00188681      -0.00701896
Pd       2.40651008       6.16290633       7.40514263  T       0.00000000       0.00000000       0.00000000      -0.01539048      -0.00798543      -0.00521982
Pd       0.60433818       5.55187436       5.37993065  F       0.00000000       0.00000000       0.00000000       0.04016048      -0.03865827       0.14907378
Pd       2.46069474       6.15173685       3.44535000  F       0.00000000       0.00000000       0.00000000       0.03328416      -0.04519585       0.11170344
Pd       0.61517368       5.53656316       1.50000000  F       0.00000000       0.00000000       0.00000000       0.00224178       0.00469490      -0.23328034
Pd       1.18049957       3.65981590       7.35480234  T       0.00000000       0.00000000       0.00000000      -0.00445088      -0.00470213      -0.00493823
Pd      11.67123156       3.08419612       5.37703229  F       0.00000000       0.00000000       0.00000000      -0.03488931       0.01217429       0.25504883
Pd       6.87135975       6.69205119       9.90769611  T       0.00000000       0.00000000       0.00000000       0.01341928      -0.01879497      -0.00077401
Pd       1.23034737       3.69104211       3.44535000  F       0.00000000       0.00000000       0.00000000       0.07351278       0.01135377       0.12463871
Pd      12.26682064       1.30950949       7.38950709  T       0.00000000       0.00000000       0.00000000      -0.00170237       0.00465206       0.00144314
Pd      10.43990395       0.63072067       5.40242717  F       0.00000000       0.00000000       0.00000000      -0.01609384      -0.01445293       0.16831034
Pd       0.00000000       1.23034737       3.44535000  F       0.00000000       0.00000000       0.00000000      -0.00625402       0.00415520       0.05693560
Pd       1.84552105       1.84552105       1.50000000  F       0.00000000       0.00000000       0.00000000      -0.00265659       0.01288934      -0.23495576
Pd      10.45795264       0.61517368       1.50000000  F       0.00000000       0.00000000       0.00000000       0.00230714      -0.00685363      -0.23058279
Pd      11.08495449      11.11984092       7.40581145  T       0.00000000       0.00000000       0.00000000       0.00026557       0.01206846      -0.00624562
Pd       3.08603315      10.44311122       5.43671144  T       0.00000000       0.00000000       0.00000000       0.01232381       0.00445440       0.00154099
Pd       3.69104211       2.46069474       3.44535000  F       0.00000000       0.00000000       0.00000000      -0.06973024       0.03797834       0.09271215
Pd       1.85442396       1.83305046       5.40626716  F       0.00000000       0.00000000       0.00000000       0.07615770       0.02257346       0.09448238
Pd      11.68830001       3.07586842       1.50000000  F       0.00000000       0.00000000       0.00000000       0.00013539      -0.00909067      -0.23216050
Pd       0.75083313       0.53037828       9.92152394  T       0.00000000       0.00000000       0.00000000      -0.01413672      -0.03268329      -0.02379207
Pd       2.31493017       3.48966840       9.76733931  T       0.00000000       0.00000000       0.00000000       0.00154148       0.02001071      -0.00990837
Pd       3.82058349       6.72486932       9.92235706  T       0.00000000       0.00000000       0.00000000      -0.01047567      -0.01468249      -0.00674383
Pd       6.15173685       1.23034737       3.44535000  F       0.00000000       0.00000000       0.00000000      -0.00681782       0.01321655       0.03801122
Pd       4.28818081       0.63072761       5.40241929  F       0.00000000       0.00000000       0.00000000      -0.07203548      -0.00769243       0.17170470
Pd       6.10326938       1.30043547       7.37958124  T       0.00000000       0.00000000       0.00000000       0.00841601       0.00805871       0.00608768
Pd       5.53656316       3.07586842       1.50000000  F       0.00000000       0.00000000       0.00000000      -0.00026209      -0.01025670      -0.23230767
Pd       1.85444455       7.98478761       5.40627529  F       0.00000000       0.00000000       0.00000000       0.08008248       0.02035262       0.11323427
Pd       5.36742141       3.42032592       9.68444100  T       0.00000000       0.00000000       0.00000000       0.00488774      -0.00979952      -0.00983990
Pd       3.07586842      10.45795264       1.50000000  F       0.00000000       0.00000000       0.00000000      -0.00524186      -0.00118744      -0.22636750
Pd       3.07586842       4.30621579       1.50000000  F       0.00000000       0.00000000       0.00000000      -0.00546026      -0.00274188      -0.22794512
Pd       3.08570707       4.30118882       5.43316368  T       0.00000000       0.00000000       0.00000000       0.00600337      -0.00623805       0.01006920
Pd      11.07671011       4.96304287       7.39451578  T       0.00000000       0.00000000       0.00000000       0.01264205       0.01076299      -0.00073823
Pd      11.07312632      11.07312632       3.44535000  F       0.00000000       0.00000000       0.00000000      -0.09551712       0.01906544       0.07658140
Pd       9.99376023       0.58424747       9.90253786  T       0.00000000       0.00000000       0.00000000      -0.02106032       0.00316192       0.00293055
Pd       6.89474552       0.54280169       9.90838682  T       0.00000000       0.00000000       0.00000000       0.00703611       0.00791597       0.02494089
Pd       8.50910433       9.66839089       9.91146426  T       0.00000000       0.00000000       0.00000000       0.01724272       0.00214709      -0.00605463
Pd       0.73838579       6.67342386       9.91276503  T       0.00000000       0.00000000       0.00000000       0.00502959       0.00991461       0.00225253
Pd       5.33864130       9.62207108       9.85212314  T       0.00000000       0.00000000       0.00000000       0.01372005       0.01662350       0.02784808
Pd      11.54049383       3.40626876       9.68857090  T       0.00000000       0.00000000       0.00000000       0.00334354       0.00586829      -0.01014196
Pd       8.45218666       3.49158716       9.76189879  T       0.00000000       0.00000000       0.00000000       0.01114390      -0.00622243      -0.00008295
Pd       9.98038019       6.69369313       9.91912396  T       0.00000000       0.00000000       0.00000000       0.00899378      -0.00323618      -0.02073320
Pd       3.83522997       0.57033681       9.90856918  T       0.00000000       0.00000000       0.00000000       0.00717067       0.01247906      -0.01413839
Pd       2.30679389       9.64436452       9.78620672  T       0.00000000       0.00000000       0.00000000      -0.00719418      -0.00604295      -0.00624518
Pd       4.94230744      11.08704810       7.38798059  T       0.00000000       0.00000000       0.00000000       0.00377015       0.00785499      -0.01181090
Pd      11.56838648       9.54461687       9.67532084  T       0.00000000       0.00000000       0.00000000      -0.01590319      -0.00009672      -0.00136477
C        8.76110320      10.17816869      11.72367737  T       0.00000000       0.00000000       0.00000000      -0.02860023      -0.00227714       0.01747393
O        8.97357655      10.45133201      12.82277887  T       0.00000000       0.00000000       0.00000000       0.01046232       0.00161235      -0.01891693
O        5.90724711      10.32595342      11.66441068  T       0.00000000       0.00000000       0.00000000       0.02121586       0.00391214      -0.00594699
C        5.01689969      10.17746226      12.74911961  T       0.00000000       0.00000000       0.00000000       0.02137557      -0.00142925      -0.01184298
H        5.60652159      10.43107339      13.65477255  T       0.00000000       0.00000000       0.00000000      -0.02965162      -0.00449854       0.00947535
H        4.15627732      10.88148363      12.69548160  T       0.00000000       0.00000000       0.00000000      -0.01268046      -0.02720455       0.00434479
H        4.63186716       9.14349972      12.85873970  T       0.00000000       0.00000000       0.00000000      -0.01428139       0.00224418       0.01638659
