119
Lattice="12.303473692417112 0.0 0.0 0.0 12.303473692417114 0.0 0.0 0.0 29.165420746594243" Properties=species:S:1:pos:R:3:move_mask:L:1:momenta:R:3:forces:R:3 idx=10461 E_MACE=-601.6479277398032 d_min=1.180444152762719 d_reactive=3.3440242259217214 E=-601.6479277398032 converged=T n_steps=136 d_z=-1.2241155619405237 fingerprint="_JSON [1.11, 1.11, 1.11, 1.18, 1.41, 1.79, 1.8, 1.8, 2.02, 2.12, 2.12, 3.34, 3.58, 3.59, 3.74, 3.79, 3.99, 4.28, 4.5, 4.9, 5.32]" dE_rel_meV=17.56132500941021 energy=-601.6479277398032 stress="0.006061141152294266 0.00037920354868071907 -0.00028450584769416204 0.00037920354868071907 0.005257695121321695 -6.044966842972611e-05 -0.00028450584769416204 -6.044966842972611e-05 -0.0033465039831225302" pbc="T T T"
O        8.49476585      11.57423590       9.37041013  T       0.00000000       0.00000000       0.00000000      -0.01383379      -0.00521689       0.02270292
O       11.47685888       5.27151654       9.47753313  T       0.00000000       0.00000000       0.00000000       0.02365791       0.00261077      -0.00098474
O       10.91392055       1.68538596      12.96763852  T       0.00000000       0.00000000       0.00000000       0.01760532       0.02506919       0.01987263
O       11.51781131      11.64812206       9.34999783  T       0.00000000       0.00000000       0.00000000       0.00802391      -0.02160081       0.01487057
O        8.44443693       7.83297547      10.50574594  T       0.00000000       0.00000000       0.00000000       0.00944067       0.02271959      -0.00562656
O        5.33970653      11.54858740       9.37858106  T       0.00000000       0.00000000       0.00000000       0.00858262       0.01277661       0.01608357
O        5.36330960       7.80688482      10.57080004  T       0.00000000       0.00000000       0.00000000       0.00940690       0.00723339       0.01106271
O        8.43920491       5.46501784       9.32625108  T       0.00000000       0.00000000       0.00000000       0.02097087      -0.00714723      -0.01242846
O       11.52166743       7.80798814      10.53071351  T       0.00000000       0.00000000       0.00000000       0.02395068       0.02278861       0.02212879
O        2.29581073       5.43867202       9.35874667  T       0.00000000       0.00000000       0.00000000       0.00359694       0.01349368      -0.00745295
O        2.26717357       1.69558293      10.52691516  T       0.00000000       0.00000000       0.00000000       0.00247170       0.00461715      -0.00402345
O        2.30545401      11.58415606       9.39802247  T       0.00000000       0.00000000       0.00000000       0.00227701       0.00429931       0.00561968
O        5.32667890       5.40961496       9.39465256  T       0.00000000       0.00000000       0.00000000       0.01008216      -0.02873780      -0.01914410
O        5.40143378       1.63648838      10.53771378  T       0.00000000       0.00000000       0.00000000      -0.01066765       0.01596305       0.02113821
O        2.23487685       7.82341363      10.50981442  T       0.00000000       0.00000000       0.00000000       0.01170670       0.01221975       0.00924493
O        8.47740453       1.65765918      10.47404245  T       0.00000000       0.00000000       0.00000000       0.01390973       0.02776147       0.00381388
Pd       5.53656316       9.22760527       1.50000000  F       0.00000000       0.00000000       0.00000000       0.00003467      -0.00926236      -0.23235055
Pd       6.10452974       7.45566036       7.38933298  T       0.00000000       0.00000000       0.00000000       0.01573700       0.00099065      -0.00024402
Pd       4.28815433       6.78245218       5.40241719  F       0.00000000       0.00000000       0.00000000      -0.05155368      -0.00355037       0.18764646
Pd       6.15173685       7.38208422       3.44535000  F       0.00000000       0.00000000       0.00000000      -0.00116041       0.00692468       0.05108902
Pd       7.31903769       3.66510545       7.38096784  T       0.00000000       0.00000000       0.00000000       0.01742429      -0.00328508       0.02098149
Pd       5.51948843       3.08419342       5.37702261  F       0.00000000       0.00000000       0.00000000      -0.03192373       0.02178353       0.26969414
Pd       6.76691053       5.53656316       1.50000000  F       0.00000000       0.00000000       0.00000000       0.00331388       0.00527770      -0.23138983
Pd       7.38208422       9.84277895       3.44535000  F       0.00000000       0.00000000       0.00000000       0.07096398       0.01256425       0.12567220
Pd       7.99725790       7.99725790       1.50000000  F       0.00000000       0.00000000       0.00000000      -0.00279698       0.01308057      -0.23357332
Pd       5.51951598       9.23590192       5.37700272  F       0.00000000       0.00000000       0.00000000      -0.03898763       0.01073452       0.26353102
Pd       8.00616182       7.98477587       5.40628129  F       0.00000000       0.00000000       0.00000000       0.04381496       0.03243012       0.08094852
Pd       6.76691053      11.68830001       1.50000000  F       0.00000000       0.00000000       0.00000000       0.00058877       0.00595514      -0.23388130
Pd       8.61243158       0.00000000       3.44535000  F       0.00000000       0.00000000       0.00000000       0.04671651      -0.04851394       0.11798005
Pd       6.75606179      11.70364973       5.37992114  F       0.00000000       0.00000000       0.00000000       0.06055899      -0.06696018       0.15614684
Pd       8.54674875      -0.02560344       7.42455019  T       0.00000000       0.00000000       0.00000000      -0.01099033       0.00210728      -0.00779712
Pd       9.84277895       8.61243158       3.44535000  F       0.00000000       0.00000000       0.00000000      -0.06971550       0.04462172       0.09115746
Pd       7.38208422       3.69104211       3.44535000  F       0.00000000       0.00000000       0.00000000       0.08163881       0.01837374       0.13419957
Pd       3.69104211       8.61243158       3.44535000  F       0.00000000       0.00000000       0.00000000      -0.06818251       0.04241850       0.09654083
Pd       9.81833995       8.61093417       7.50006193  T       0.00000000       0.00000000       0.00000000       0.01119539       0.00442812      -0.00570796
Pd       9.22760527      10.45795264       1.50000000  F       0.00000000       0.00000000       0.00000000      -0.00524460      -0.00259824      -0.22857142
Pd       7.31911995       9.80147998       7.36193682  T       0.00000000       0.00000000       0.00000000       0.00738176      -0.00348953      -0.01862378
Pd       1.84552105       7.99725790       1.50000000  F       0.00000000       0.00000000       0.00000000      -0.00290000       0.01177129      -0.23402410
Pd      11.68830001       9.22760527       1.50000000  F       0.00000000       0.00000000       0.00000000      -0.00017901      -0.00907409      -0.23357566
Pd       0.60431863      11.70356305       5.37989931  F       0.00000000       0.00000000       0.00000000       0.07102124      -0.05909313       0.14499568
Pd       8.61243158       6.15173685       3.44535000  F       0.00000000       0.00000000       0.00000000       0.03792772      -0.06126037       0.11733840
Pd       6.75605293       5.55187564       5.37990856  F       0.00000000       0.00000000       0.00000000       0.01070150      -0.08468906       0.14203532
Pd       8.55282026       6.14401404       7.39180898  T       0.00000000       0.00000000       0.00000000       0.00913488      -0.00815188       0.01176466
Pd       7.99725790       1.84552105       1.50000000  F       0.00000000       0.00000000       0.00000000      -0.00267133       0.01165476      -0.23190579
Pd       9.84277895       2.46069474       3.44535000  F       0.00000000       0.00000000       0.00000000      -0.07303813       0.05229693       0.08877059
Pd       8.00617313       1.83308050       5.40627808  F       0.00000000       0.00000000       0.00000000       0.05551260       0.02548066       0.14636392
Pd       9.76775903       2.49070820       7.48495404  T       0.00000000       0.00000000       0.00000000      -0.00140098      -0.00775573      -0.00910738
Pd       9.22760527       4.30621579       1.50000000  F       0.00000000       0.00000000       0.00000000      -0.00468692      -0.00253710      -0.22678852
Pd       4.92138948       4.92138948       3.44535000  F       0.00000000       0.00000000       0.00000000      -0.08207386       0.02437618       0.06453424
Pd       9.24591276       4.30197684       5.44299186  T       0.00000000       0.00000000       0.00000000      -0.00582286      -0.00391088       0.00658208
Pd       4.91629365       4.97077194       7.41032996  T       0.00000000       0.00000000       0.00000000       0.01769891       0.00780622      -0.01077541
Pd      10.45795264       6.76691053       1.50000000  F       0.00000000       0.00000000       0.00000000       0.00234460      -0.00621618      -0.23360658
Pd       0.00000000       7.38208422       3.44535000  F       0.00000000       0.00000000       0.00000000      -0.00227552       0.00342058       0.06302778
Pd      10.43991375       6.78245558       5.40242713  F       0.00000000       0.00000000       0.00000000       0.02047458      -0.06331815       0.25216053
Pd      12.26179474       7.46669483       7.40243839  T       0.00000000       0.00000000       0.00000000       0.00898712      -0.01129090      -0.00529570
Pd       4.92138948      11.07312632       3.44535000  F       0.00000000       0.00000000       0.00000000      -0.08435060       0.02630990       0.06127043
Pd       1.23034737       9.84277895       3.44535000  F       0.00000000       0.00000000       0.00000000       0.07607955       0.00913999       0.13110436
Pd      11.67120661       9.23591801       5.37701028  F       0.00000000       0.00000000       0.00000000      -0.03824929      -0.00606279       0.26488014
Pd       1.17919930       9.81696366       7.34848431  T       0.00000000       0.00000000       0.00000000      -0.01522107      -0.02456565       0.00139401
Pd       0.61517368      11.68830001       1.50000000  F       0.00000000       0.00000000       0.00000000       0.00152896       0.00434161      -0.23237485
Pd       2.46069474       0.00000000       3.44535000  F       0.00000000       0.00000000       0.00000000       0.03339855      -0.04106047       0.11907067
Pd       2.39926853      -0.01883097       7.43689053  T       0.00000000       0.00000000       0.00000000       0.00779887      -0.00002341      -0.00102342
Pd       9.23328593      10.45097211       5.43484825  T       0.00000000       0.00000000       0.00000000       0.01530121       0.00307295      -0.00815087
Pd       3.66092120       8.61967224       7.50855970  T       0.00000000       0.00000000       0.00000000       0.01193304      -0.00707952      -0.00693656
Pd       4.30621579       0.61517368       1.50000000  F       0.00000000       0.00000000       0.00000000       0.00385006      -0.00522305      -0.23483595
Pd      11.07312632       4.92138948       3.44535000  F       0.00000000       0.00000000       0.00000000      -0.08291933       0.01850400       0.06830141
Pd       4.30621579       6.76691053       1.50000000  F       0.00000000       0.00000000       0.00000000       0.00287102      -0.00730454      -0.23297461
Pd       3.67435242       2.45682507       7.51075525  T       0.00000000       0.00000000       0.00000000       0.01267597      -0.00678954      -0.01923346
Pd       2.39421424       6.15244223       7.41068309  T       0.00000000       0.00000000       0.00000000       0.01305399       0.00566724       0.01186460
Pd       0.60433818       5.55187436       5.37993065  F       0.00000000       0.00000000       0.00000000      -0.04450873      -0.03417092       0.16923977
Pd       2.46069474       6.15173685       3.44535000  F       0.00000000       0.00000000       0.00000000       0.04221570      -0.04810841       0.11257442
Pd       0.61517368       5.53656316       1.50000000  F       0.00000000       0.00000000       0.00000000       0.00120839       0.00394088      -0.23442204
Pd       1.19964701       3.66654047       7.33063452  T       0.00000000       0.00000000       0.00000000       0.00559409      -0.01825585      -0.00399854
Pd      11.67123156       3.08419612       5.37703229  F       0.00000000       0.00000000       0.00000000      -0.07524632       0.15805682       0.25016856
Pd       6.89051172       6.67379624       9.91415160  T       0.00000000       0.00000000       0.00000000       0.01651094       0.00458670       0.00552370
Pd       1.23034737       3.69104211       3.44535000  F       0.00000000       0.00000000       0.00000000       0.08147466       0.01688702       0.12008919
Pd      12.24488700       1.30323329       7.33785851  T       0.00000000       0.00000000       0.00000000      -0.01258426       0.01504785       0.00469085
Pd      10.43990395       0.63072067       5.40242717  F       0.00000000       0.00000000       0.00000000      -0.15594535      -0.08243550       0.14664920
Pd       0.00000000       1.23034737       3.44535000  F       0.00000000       0.00000000       0.00000000       0.00482092      -0.00044451       0.03199053
Pd       1.84552105       1.84552105       1.50000000  F       0.00000000       0.00000000       0.00000000      -0.00300273       0.01332318      -0.23115685
Pd      10.45795264       0.61517368       1.50000000  F       0.00000000       0.00000000       0.00000000       0.00281495      -0.00474852      -0.23261380
Pd      11.07878302      11.10718021       7.40113338  T       0.00000000       0.00000000       0.00000000       0.01355144       0.00850274      -0.02734689
Pd       3.08773931      10.45612906       5.43471789  T       0.00000000       0.00000000       0.00000000      -0.00675915      -0.00371277      -0.00118026
Pd       3.69104211       2.46069474       3.44535000  F       0.00000000       0.00000000       0.00000000      -0.07213309       0.03701281       0.09032052
Pd       1.85442396       1.83305046       5.40626716  F       0.00000000       0.00000000       0.00000000       0.14209287      -0.04057243       0.09005044
Pd      11.68830001       3.07586842       1.50000000  F       0.00000000       0.00000000       0.00000000      -0.00142559      -0.01085564      -0.23483996
Pd       0.68505398       0.65394404       9.82940284  T       0.00000000       0.00000000       0.00000000       0.00909164       0.00033950       0.01539734
Pd       2.34633080       3.47235798       9.75695751  T       0.00000000       0.00000000       0.00000000       0.00216012      -0.00447647      -0.00364212
Pd       3.81559566       6.69687100       9.91998530  T       0.00000000       0.00000000       0.00000000      -0.01397254       0.00278653      -0.01763101
Pd       6.15173685       1.23034737       3.44535000  F       0.00000000       0.00000000       0.00000000      -0.00014454       0.00945301       0.05101554
Pd       4.28818081       0.63072761       5.40241929  F       0.00000000       0.00000000       0.00000000      -0.07868212      -0.00457383       0.19799126
Pd       6.11499221       1.30630255       7.37731174  T       0.00000000       0.00000000       0.00000000      -0.01666279       0.01153073      -0.02335342
Pd       5.53656316       3.07586842       1.50000000  F       0.00000000       0.00000000       0.00000000      -0.00044833      -0.01061942      -0.23356897
Pd       1.85444455       7.98478761       5.40627529  F       0.00000000       0.00000000       0.00000000       0.05077919       0.02238426       0.10086180
Pd       5.37975077       3.39214795       9.68494684  T       0.00000000       0.00000000       0.00000000      -0.01031147      -0.00392534      -0.00410456
Pd       3.07586842      10.45795264       1.50000000  F       0.00000000       0.00000000       0.00000000      -0.00523590      -0.00372934      -0.22981307
Pd       3.07586842       4.30621579       1.50000000  F       0.00000000       0.00000000       0.00000000      -0.00477697      -0.00302621      -0.22747270
Pd       3.09084923       4.29906816       5.43486249  T       0.00000000       0.00000000       0.00000000       0.00013905       0.00723234      -0.00975449
Pd      11.09716943       5.00654663       7.46641952  T       0.00000000       0.00000000       0.00000000      -0.00284050       0.00045214       0.00173024
Pd      11.07312632      11.07312632       3.44535000  F       0.00000000       0.00000000       0.00000000      -0.09298005       0.02332072       0.05965638
Pd      10.10296824       0.72286103       9.77063850  T       0.00000000       0.00000000       0.00000000      -0.02088544       0.02144067      -0.01522244
Pd       6.92504191       0.49295507       9.88103117  T       0.00000000       0.00000000       0.00000000       0.02757667      -0.02393620      -0.02555798
Pd       8.50327254       9.62136406       9.74291516  T       0.00000000       0.00000000       0.00000000       0.00173900      -0.03288800       0.01556112
Pd       0.70858174       6.61796304       9.91054090  T       0.00000000       0.00000000       0.00000000       0.00242023      -0.01656418       0.00897269
Pd       5.36607329       9.54026451       9.68079851  T       0.00000000       0.00000000       0.00000000       0.00793837      -0.01979226       0.00356321
Pd      11.67494978       3.05027631       9.42577945  T       0.00000000       0.00000000       0.00000000      -0.00474953      -0.00038346       0.01061158
Pd       8.45594370       3.50080433       9.84203675  T       0.00000000       0.00000000       0.00000000      -0.02279908      -0.00619814      -0.00074420
Pd       9.99671708       6.65508050       9.91563551  T       0.00000000       0.00000000       0.00000000      -0.01869519       0.00042343      -0.01816981
Pd       3.83412177       0.53812883       9.91825470  T       0.00000000       0.00000000       0.00000000       0.01348875      -0.01031334      -0.00303743
Pd       2.29581558       9.61656587       9.75493447  T       0.00000000       0.00000000       0.00000000      -0.00563190      -0.00666955       0.00560616
Pd       4.92585645      11.11866077       7.40068385  T       0.00000000       0.00000000       0.00000000       0.00138770       0.00433074       0.00702259
Pd      11.53507701       9.56827351       9.65638040  T       0.00000000       0.00000000       0.00000000       0.00287458      -0.00076050       0.01270855
C       11.49423854       2.70176394      12.81383597  T       0.00000000       0.00000000       0.00000000       0.00947061       0.00008234       0.00279543
O       12.09598112       3.70725505      12.67831807  T       0.00000000       0.00000000       0.00000000      -0.01665363      -0.00298394      -0.01044603
O        8.67214406       4.14145518      11.74352296  T       0.00000000       0.00000000       0.00000000      -0.01388741       0.01978687       0.02381242
C        7.81842121       3.62333246      12.74389672  T       0.00000000       0.00000000       0.00000000      -0.00538970       0.00090789       0.02336025
H        6.78325300       4.02995182      12.68927745  T       0.00000000       0.00000000       0.00000000       0.00715674      -0.00085964      -0.03183698
H        7.75947393       2.51587599      12.74674990  T       0.00000000       0.00000000       0.00000000       0.00577472       0.00994692      -0.01495075
H        8.25081468       3.94838259      13.71286872  T       0.00000000       0.00000000       0.00000000       0.01757026       0.02191179      -0.00227526
