       N       E                     dE             d eps       ncg     rms          rms(c)
DAV:   1     0.771453543528E+03    0.77145E+03   -0.39934E+04  9288   0.194E+03
DAV:   2     0.665061283587E+01   -0.76480E+03   -0.73731E+03  9392   0.572E+02
DAV:   3    -0.213760630569E+02   -0.28027E+02   -0.27416E+02 10000   0.115E+02
DAV:   4    -0.216767564466E+02   -0.30069E+00   -0.30064E+00  9576   0.127E+01
DAV:   5    -0.216816683818E+02   -0.49119E-02   -0.49119E-02  9856   0.158E+00    0.108E+01
DAV:   6    -0.208265531668E+02    0.85512E+00   -0.37710E+00  9624   0.138E+01    0.227E+00
DAV:   7    -0.208225708100E+02    0.39824E-02   -0.39410E-02  9536   0.148E+00    0.144E+00
DAV:   8    -0.208191989118E+02    0.33719E-02   -0.40556E-03  9808   0.535E-01    0.822E-01
DAV:   9    -0.208186288842E+02    0.57003E-03   -0.15430E-03  9912   0.350E-01    0.913E-02
DAV:  10    -0.208187725206E+02   -0.14364E-03   -0.13874E-04  9696   0.966E-02    0.217E-02
DAV:  11    -0.208187756252E+02   -0.31046E-05   -0.53529E-06  8856   0.204E-02    0.108E-02
DAV:  12    -0.208187704195E+02    0.52057E-05   -0.26200E-06  7032   0.121E-02    0.287E-03
DAV:  13    -0.208187694995E+02    0.92004E-06   -0.30541E-07  4920   0.537E-03
   1 F= -.23439695E+02 E0= -.23437295E+02  d E =-.720081E-02  mag=     1.5565
