 vasp.6.4.3 19Mar24 (build Nov 27 2025 15:18:09) complex                         
 executed on              LinuxNV date 2026.06.04  16:36:42
 running    4 mpi-ranks, with    1 threads/rank, on    1 nodes
 distrk:  each k-point on    4 cores,    1 groups
 distr:  one band on NCORE=   1 cores,    4 groups
 OpenACC runtime initialized ...    0 GPUs detected


--------------------------------------------------------------------------------------------------------


 INCAR:
   SYSTEM = pddmc
   ENCUT = 520
   PREC = Accurate
   LASPH = .TRUE.
   ADDGRID = .TRUE.
   ISPIN = 2
   IVDW = 12
   EDIFF = 1e-06
   NELM = 200
   NELMIN = 5
   ALGO = Normal
   NCORE = 1
   LREAL = .FALSE.
   LWAVE = .FALSE.
   LCHARG = .FALSE.
   LORBIT = 11
   ISYM = 2
   IBRION = -1
   NSW = 0
   ISIF = 0
   ISMEAR = 1
   SIGMA = 0.1
   EDIFFG = -0.01

 POTCAR:    PAW_PBE Pd_pv 28Jan2005               
 -----------------------------------------------------------------------------
|                                                                             |
|           W    W    AA    RRRRR   N    N  II  N    N   GGGG   !!!           |
|           W    W   A  A   R    R  NN   N  II  NN   N  G    G  !!!           |
|           W    W  A    A  R    R  N N  N  II  N N  N  G       !!!           |
|           W WW W  AAAAAA  RRRRR   N  N N  II  N  N N  G  GGG   !            |
|           WW  WW  A    A  R   R   N   NN  II  N   NN  G    G                |
|           W    W  A    A  R    R  N    N  II  N    N   GGGG   !!!           |
|                                                                             |
|     You use a magnetic or noncollinear calculation, but did not specify     |
|     the initial magnetic moment with the MAGMOM tag. Note that a            |
|     default of 1 will be used for all atoms. This ferromagnetic setup       |
|     may break the symmetry of the crystal, in particular it may rule        |
|     out finding an antiferromagnetic solution. Thence, we recommend         |
|     setting the initial magnetic moment manually or verifying carefully     |
|     that this magnetic setup is desired.                                    |
|                                                                             |
 -----------------------------------------------------------------------------

 POTCAR:    PAW_PBE Pd_pv 28Jan2005               
   SHA256 =  3ce661545bbde58da9a95410dea32907db2844916708bcd35bbe03ee66324d7f Pd_pv/POTCAR          
   COPYR  = (c) Copyright 28Jan2005 Georg Kresse                                                    
   COPYR  = This file is part of the software VASP. Any use, copying, and all other rights are regul
   COPYR  = If you do not have a valid VASP license, you may not use, copy or distribute this file. 
   VRHFIN =Pd: 4p5s4d                                                                               
   LEXCH  = PE                                                                                      
   EATOM  =  2621.5550 eV,  192.6789 Ry                                                             
                                                                                                    
   TITEL  = PAW_PBE Pd_pv 28Jan2005                                                                 
   LULTRA =        F    use ultrasoft PP ?                                                          
   IUNSCR =        1    unscreen: 0-lin 1-nonlin 2-no                                               
   RPACOR =    2.250    partial core radius                                                         
   POMASS =  106.420; ZVAL   =   16.000    mass and valenz                                          
   RCORE  =    2.400    outmost cutoff radius                                                       
   RWIGS  =    2.300; RWIGS  =    1.217    wigner-seitz radius (au A)                               
   ENMAX  =  250.925; ENMIN  =  188.194 eV                                                          
   ICORE  =        3    local potential                                                             
   LCOR   =        T    correct aug charges                                                         
   LPAW   =        T    paw PP                                                                      
   EAUG   =  473.067                                                                                
   DEXC   =    0.000                                                                                
   RMAX   =    2.449    core radius for proj-oper                                                   
   RAUG   =    1.300    factor for augmentation sphere                                              
   RDEP   =    2.405    radius for radial grids                                                     
   RDEPT  =    1.966    core radius for aug-charge                                                  
                                                                                                    
   Atomic configuration                                                                             
   11 entries                                                                                       
     n  l   j            E        occ.                                                              
     1  0  0.50    -24164.6632   2.0000                                                             
     2  0  0.50     -3530.9218   2.0000                                                             
     2  1  1.50     -3165.6822   6.0000                                                             
     3  0  0.50      -639.4578   2.0000                                                             
     3  1  1.50      -519.4532   6.0000                                                             
     3  2  2.50      -328.9758  10.0000                                                             
     4  0  0.50       -88.7014   2.0000                                                             
     4  1  1.50       -54.4541   6.0000                                                             
     4  2  2.50        -6.6878   9.0000                                                             
     5  0  0.50        -4.3543   1.0000                                                             
     4  3  2.50        -1.3606   0.0000                                                             
   Description                                                                                      
     l       E           TYP  RCUT    TYP  RCUT                                                     
     1    -54.4540524     23  2.100                                                                 
     1      4.0817478     23  2.100                                                                 
     2     -6.6878326     23  2.400                                                                 
     2     -4.0817478     23  2.400                                                                 
     0     -4.3542962     23  2.400                                                                 
     0     13.6058260     23  2.400                                                                 
     3     -5.4423304     23  2.400                                                                 
  local pseudopotential read in
  partial core-charges read in
  partial kinetic energy density read in
  atomic valenz-charges read in
  non local Contribution for L=            1  read in
    real space projection operators read in
  non local Contribution for L=            1  read in
    real space projection operators read in
  non local Contribution for L=            2  read in
    real space projection operators read in
  non local Contribution for L=            2  read in
    real space projection operators read in
  non local Contribution for L=            0  read in
    real space projection operators read in
  non local Contribution for L=            0  read in
    real space projection operators read in
    PAW grid and wavefunctions read in
 
   number of l-projection  operators is LMAX  =            6
   number of lm-projection operators is LMMAX =           18
 
  PAW_PBE Pd_pv 28Jan2005               :
 energy of atom  1       EATOM=-2621.5550
 kinetic energy error for atom=    0.0088 (will be added to EATOM!!)
 
 
 POSCAR: Pd
  positions in cartesian coordinates
  No initial velocities read in
 IVDW         = 12
 VDW_S6       =    1.0000
 VDW_S8       =    0.7875
 VDW_A1       =    0.4289
 VDW_A2       =    4.4407
 VDW_RADIUS   =   50.2022 A
 VDW_CNRADIUS =   21.1671 A


 exchange-correlation table for PE
   RHO(1)=    0.500       N(1)  =     2000
   RHO(2)=  100.500       N(2)  =     4000
 


--------------------------------------------------------------------------------------------------------


 ion  position               nearest neighbor table
   1  0.000  0.000  0.000-   2 2.77   3 2.77   2 2.77   3 2.77   2 2.77   4 2.77   2 2.77   3 2.77
                             4 2.77   3 2.77   4 2.77   4 2.77
   2  0.000  0.500  0.500-   1 2.77   4 2.77   1 2.77   4 2.77   1 2.77   3 2.77   1 2.77   3 2.77
                             4 2.77   4 2.77   3 2.77   3 2.77
   3  0.500  0.000  0.500-   1 2.77   4 2.77   1 2.77   4 2.77   2 2.77   4 2.77   4 2.77   1 2.77
                             2 2.77   1 2.77   2 2.77   2 2.77
   4  0.500  0.500  0.000-   2 2.77   3 2.77   2 2.77   3 2.77   1 2.77   3 2.77   3 2.77   1 2.77
                             2 2.77   2 2.77   1 2.77   1 2.77
 
  LATTYP: Found a simple cubic cell.
 ALAT       =     3.9173015750
  
  Lattice vectors:
  
 A1 = (   3.9173015750,   0.0000000000,   0.0000000000)
 A2 = (   0.0000000000,   3.9173015750,   0.0000000000)
 A3 = (   0.0000000000,   0.0000000000,   3.9173015750)


Analysis of symmetry for initial positions (statically):
=====================================================================
 Subroutine PRICEL returns following result:
 
  LATTYP: Found a face centered cubic cell.
 ALAT       =     3.9173015750
  
  Lattice vectors:
  
 A1 = (   1.9586507875,  -1.9586507875,   0.0000000000)
 A2 = (   1.9586507875,   0.0000000000,   1.9586507875)
 A3 = (   0.0000000000,  -1.9586507875,   1.9586507875)
 
   4 primitive cells build up your supercell.
 

 Routine SETGRP: Setting up the symmetry group for a 
 simple cubic supercell.


 Subroutine GETGRP returns: Found 48 space group operations
 (whereof 48 operations were pure point group operations)
 out of a pool of 48 trial point group operations.


The static configuration has the point symmetry O_h .


Analysis of symmetry for dynamics (positions and initial velocities):
=====================================================================
 Subroutine PRICEL returns following result:
 
  LATTYP: Found a face centered cubic cell.
 ALAT       =     3.9173015750
  
  Lattice vectors:
  
 A1 = (   1.9586507875,  -1.9586507875,   0.0000000000)
 A2 = (   1.9586507875,   0.0000000000,   1.9586507875)
 A3 = (   0.0000000000,  -1.9586507875,   1.9586507875)
 
   4 primitive cells build up your supercell.
 

 Routine SETGRP: Setting up the symmetry group for a 
 simple cubic supercell.


 Subroutine GETGRP returns: Found 48 space group operations
 (whereof 48 operations were pure point group operations)
 out of a pool of 48 trial point group operations.


The dynamic configuration has the point symmetry O_h .


Analysis of structural, dynamic, and magnetic symmetry:
=====================================================================
 Subroutine PRICEL returns following result:
 
  LATTYP: Found a face centered cubic cell.
 ALAT       =     3.9173015750
  
  Lattice vectors:
  
 A1 = (   1.9586507875,  -1.9586507875,   0.0000000000)
 A2 = (   1.9586507875,   0.0000000000,   1.9586507875)
 A3 = (   0.0000000000,  -1.9586507875,   1.9586507875)
 
   4 primitive cells build up your supercell.
 

 Routine SETGRP: Setting up the symmetry group for a 
 simple cubic supercell.


 Subroutine GETGRP returns: Found 48 space group operations
 (whereof 48 operations were pure point group operations)
 out of a pool of 48 trial point group operations.


The overall configuration has the point symmetry O_h .


 Subroutine INISYM returns: Found 48 space group operations
 (whereof 48 operations are pure point group operations),
 and found     4 'primitive' translations


----------------------------------------------------------------------------------------

                                     Primitive cell                                     

  volume of cell :      15.0280

  direct lattice vectors                    reciprocal lattice vectors
     1.958650787 -1.958650787  0.000000000     0.255277767 -0.255277767 -0.255277767
     1.958650787  0.000000000  1.958650787     0.255277767  0.255277767  0.255277767
     0.000000000 -1.958650787  1.958650787    -0.255277767 -0.255277767  0.255277767

  length of vectors
     2.769950508  2.769950508  2.769950508     0.442154063  0.442154063  0.442154063

  position of ions in fractional coordinates (direct lattice)
     0.000000000  0.000000000  0.000000000

  ion indices of the primitive-cell ions
   primitive index   ion index
                 1           1

----------------------------------------------------------------------------------------

 
 
 KPOINTS: Automatic mesh                          

Automatic generation of k-mesh.
 Grid dimensions read from file:
 generate k-points for:   10   10   10

 Generating k-lattice:

  Cartesian coordinates                     Fractional coordinates (reciprocal lattice)
     0.025527777 -0.000000000  0.000000000     0.100000000  0.000000000  0.000000000
     0.000000000  0.025527777  0.000000000     0.000000000  0.100000000  0.000000000
    -0.000000000 -0.000000000  0.025527777    -0.000000000 -0.000000000  0.100000000

  Length of vectors
     0.025527777  0.025527777  0.025527777

  Shift w.r.t. Gamma in fractional coordinates (k-lattice)
     0.000000000  0.000000000  0.000000000

 
 Subroutine IBZKPT returns following result:
 ===========================================
 
 Found     56 irreducible k-points:
 
 Following reciprocal coordinates:
            Coordinates               Weight
  0.000000  0.000000  0.000000      1.000000
  0.100000  0.000000  0.000000      6.000000
  0.200000  0.000000  0.000000      6.000000
  0.300000  0.000000  0.000000      6.000000
  0.400000  0.000000  0.000000      6.000000
  0.500000  0.000000  0.000000      3.000000
  0.100000  0.100000  0.000000     12.000000
  0.200000  0.100000  0.000000     24.000000
  0.300000  0.100000  0.000000     24.000000
  0.400000  0.100000  0.000000     24.000000
  0.500000  0.100000  0.000000     12.000000
  0.200000  0.200000  0.000000     12.000000
  0.300000  0.200000  0.000000     24.000000
  0.400000  0.200000  0.000000     24.000000
  0.500000  0.200000  0.000000     12.000000
  0.300000  0.300000  0.000000     12.000000
  0.400000  0.300000  0.000000     24.000000
  0.500000  0.300000  0.000000     12.000000
  0.400000  0.400000  0.000000     12.000000
  0.500000  0.400000  0.000000     12.000000
  0.500000  0.500000  0.000000      3.000000
  0.100000  0.100000  0.100000      8.000000
  0.200000  0.100000  0.100000     24.000000
  0.300000  0.100000  0.100000     24.000000
  0.400000  0.100000  0.100000     24.000000
  0.500000  0.100000  0.100000     12.000000
  0.200000  0.200000  0.100000     24.000000
  0.300000  0.200000  0.100000     48.000000
  0.400000  0.200000  0.100000     48.000000
  0.500000  0.200000  0.100000     24.000000
  0.300000  0.300000  0.100000     24.000000
  0.400000  0.300000  0.100000     48.000000
  0.500000  0.300000  0.100000     24.000000
  0.400000  0.400000  0.100000     24.000000
  0.500000  0.400000  0.100000     24.000000
  0.500000  0.500000  0.100000      6.000000
  0.200000  0.200000  0.200000      8.000000
  0.300000  0.200000  0.200000     24.000000
  0.400000  0.200000  0.200000     24.000000
  0.500000  0.200000  0.200000     12.000000
  0.300000  0.300000  0.200000     24.000000
  0.400000  0.300000  0.200000     48.000000
  0.500000  0.300000  0.200000     24.000000
  0.400000  0.400000  0.200000     24.000000
  0.500000  0.400000  0.200000     24.000000
  0.500000  0.500000  0.200000      6.000000
  0.300000  0.300000  0.300000      8.000000
  0.400000  0.300000  0.300000     24.000000
  0.500000  0.300000  0.300000     12.000000
  0.400000  0.400000  0.300000     24.000000
  0.500000  0.400000  0.300000     24.000000
  0.500000  0.500000  0.300000      6.000000
  0.400000  0.400000  0.400000      8.000000
  0.500000  0.400000  0.400000     12.000000
  0.500000  0.500000  0.400000      6.000000
  0.500000  0.500000  0.500000      1.000000
 
 Following cartesian coordinates:
            Coordinates               Weight
  0.000000  0.000000  0.000000      1.000000
  0.025528  0.000000  0.000000      6.000000
  0.051056  0.000000  0.000000      6.000000
  0.076583  0.000000  0.000000      6.000000
  0.102111  0.000000  0.000000      6.000000
  0.127639  0.000000  0.000000      3.000000
  0.025528  0.025528  0.000000     12.000000
  0.051056  0.025528  0.000000     24.000000
  0.076583  0.025528  0.000000     24.000000
  0.102111  0.025528  0.000000     24.000000
  0.127639  0.025528  0.000000     12.000000
  0.051056  0.051056  0.000000     12.000000
  0.076583  0.051056  0.000000     24.000000
  0.102111  0.051056  0.000000     24.000000
  0.127639  0.051056  0.000000     12.000000
  0.076583  0.076583  0.000000     12.000000
  0.102111  0.076583  0.000000     24.000000
  0.127639  0.076583  0.000000     12.000000
  0.102111  0.102111  0.000000     12.000000
  0.127639  0.102111  0.000000     12.000000
  0.127639  0.127639  0.000000      3.000000
  0.025528  0.025528  0.025528      8.000000
  0.051056  0.025528  0.025528     24.000000
  0.076583  0.025528  0.025528     24.000000
  0.102111  0.025528  0.025528     24.000000
  0.127639  0.025528  0.025528     12.000000
  0.051056  0.051056  0.025528     24.000000
  0.076583  0.051056  0.025528     48.000000
  0.102111  0.051056  0.025528     48.000000
  0.127639  0.051056  0.025528     24.000000
  0.076583  0.076583  0.025528     24.000000
  0.102111  0.076583  0.025528     48.000000
  0.127639  0.076583  0.025528     24.000000
  0.102111  0.102111  0.025528     24.000000
  0.127639  0.102111  0.025528     24.000000
  0.127639  0.127639  0.025528      6.000000
  0.051056  0.051056  0.051056      8.000000
  0.076583  0.051056  0.051056     24.000000
  0.102111  0.051056  0.051056     24.000000
  0.127639  0.051056  0.051056     12.000000
  0.076583  0.076583  0.051056     24.000000
  0.102111  0.076583  0.051056     48.000000
  0.127639  0.076583  0.051056     24.000000
  0.102111  0.102111  0.051056     24.000000
  0.127639  0.102111  0.051056     24.000000
  0.127639  0.127639  0.051056      6.000000
  0.076583  0.076583  0.076583      8.000000
  0.102111  0.076583  0.076583     24.000000
  0.127639  0.076583  0.076583     12.000000
  0.102111  0.102111  0.076583     24.000000
  0.127639  0.102111  0.076583     24.000000
  0.127639  0.127639  0.076583      6.000000
  0.102111  0.102111  0.102111      8.000000
  0.127639  0.102111  0.102111     12.000000
  0.127639  0.127639  0.102111      6.000000
  0.127639  0.127639  0.127639      1.000000
 


--------------------------------------------------------------------------------------------------------




 Dimension of arrays:
   k-points           NKPTS =     56   k-points in BZ     NKDIM =     56   number of bands    NBANDS=     40
   number of dos      NEDOS =    301   number of ions     NIONS =      4
   non local maximal  LDIM  =      6   non local SUM 2l+1 LMDIM =     18
   total plane-waves  NPLWV =  27000
   max r-space proj   IRMAX =      1   max aug-charges    IRDMAX= 144038
   dimension x,y,z NGX =    30 NGY =   30 NGZ =   30
   dimension x,y,z NGXF=    60 NGYF=   60 NGZF=   60
   support grid    NGXF=   120 NGYF=  120 NGZF=  120
   ions per type =               4
   NGX,Y,Z   is equivalent  to a cutoff of  12.73, 12.73, 12.73 a.u.
   NGXF,Y,Z  is equivalent  to a cutoff of  25.46, 25.46, 25.46 a.u.

 SYSTEM =  pddmc                                   
 POSCAR =  Pd                                      

 Startparameter for this run:
   NWRITE =      2    write-flag & timer
   PREC   = accura    normal or accurate (medium, high low for compatibility)
   ISTART =      0    job   : 0-new  1-cont  2-samecut
   ICHARG =      2    charge: 1-file 2-atom 10-const
   ISPIN  =      2    spin polarized calculation?
   LNONCOLLINEAR =      F non collinear calculations
   LSORBIT =      F    spin-orbit coupling
   INIWAV =      1    electr: 0-lowe 1-rand  2-diag
   LASPH  =      T    aspherical Exc in radial PAW
 Electronic Relaxation 1
   ENCUT  =  520.0 eV  38.22 Ry    6.18 a.u.   7.28  7.28  7.28*2*pi/ulx,y,z
   ENINI  =  520.0     initial cutoff
   ENAUG  =  473.1 eV  augmentation charge cutoff
   NELM   =    200;   NELMIN=  5; NELMDL= -5     # of ELM steps 
   EDIFF  = 0.1E-05   stopping-criterion for ELM
   LREAL  =      F    real-space projection
   NLSPLINE    = F    spline interpolate recip. space projectors
   LCOMPAT=      F    compatible to vasp.4.4
   GGA_COMPAT  = T    GGA compatible to vasp.4.4-vasp.4.6
   LMAXPAW     = -100 max onsite density
   LMAXMIX     =    2 max onsite mixed and CHGCAR
   VOSKOWN=      0    Vosko Wilk Nusair interpolation
   ROPT   =    0.00000
 Ionic relaxation
   EDIFFG = -.1E-01   stopping-criterion for IOM
   NSW    =      0    number of steps for IOM
   NBLOCK =      1;   KBLOCK =      1    inner block; outer block 
   IBRION =     -1    ionic relax: 0-MD 1-quasi-New 2-CG
   NFREE  =      0    steps in history (QN), initial steepest desc. (CG)
   ISIF   =      0    stress and relaxation
   IWAVPR =     10    prediction:  0-non 1-charg 2-wave 3-comb
   ISYM   =      2    0-nonsym 1-usesym 2-fastsym
   LCORR  =      T    Harris-Foulkes like correction to forces

   POTIM  = 0.5000    time-step for ionic-motion
   TEIN   =    0.0    initial temperature
   TEBEG  =    0.0;   TEEND  =   0.0 temperature during run
   SMASS  =  -3.00    Nose mass-parameter (am)
   estimated Nose-frequenzy (Omega)   =  0.10E-29 period in steps = 0.13E+47 mass=  -0.351E-27a.u.
   SCALEE = 1.0000    scale energy and forces
   NPACO  =    256;   APACO  = 10.0  distance and # of slots for P.C.
   PSTRESS=    0.0 pullay stress

  Mass of Ions in am
   POMASS = 106.42
  Ionic Valenz
   ZVAL   =  16.00
  Atomic Wigner-Seitz radii
   RWIGS  =  -1.00
  virtual crystal weights 
   VCA    =   1.00
   NELECT =      64.0000    total number of electrons
   NUPDOWN=      -1.0000    fix difference up-down

 DOS related values:
   EMIN   =  10.00;   EMAX   =-10.00  energy-range for DOS
   EFERMI =   0.00;   METHOD = LEGACY      
   ISMEAR =     1;   SIGMA  =   0.10  broadening in eV -4-tet -1-fermi 0-gaus

 Electronic relaxation 2 (details)
   IALGO  =     38    algorithm
   LDIAG  =      T    sub-space diagonalisation (order eigenvalues)
   LSUBROT=      F    optimize rotation matrix (better conditioning)
   TURBO    =      0    0=normal 1=particle mesh
   IRESTART =      0    0=no restart 2=restart with 2 vectors
   NREBOOT  =      0    no. of reboots
   NMIN     =      0    reboot dimension
   EREF     =   0.00    reference energy to select bands
   IMIX   =      4    mixing-type and parameters
     AMIX     =   0.40;   BMIX     =  1.00
     AMIX_MAG =   1.60;   BMIX_MAG =  1.00
     AMIN     =   0.10
     WC   =   100.;   INIMIX=   1;  MIXPRE=   1;  MAXMIX= -45

 Intra band minimization:
   WEIMIN = 0.0000     energy-eigenvalue tresh-hold
   EBREAK =  0.62E-08  absolut break condition
   DEPER  =   0.30     relativ break condition  

   TIME   =   0.40     timestep for ELM

  volume/ion in A,a.u.               =      15.03       101.41
  Fermi-wavevector in a.u.,A,eV,Ry     =   1.671659  3.158978 38.020738  2.794445
  Thomas-Fermi vector in A             =   2.756943
 
 Write flags
   LWAVE        =      F    write WAVECAR
   LDOWNSAMPLE  =      F    k-point downsampling of WAVECAR
   LCHARG       =      F    write CHGCAR
   LVTOT        =      F    write LOCPOT, total local potential
   LVHAR        =      F    write LOCPOT, Hartree potential only
   WRT_POTENTIAL= false  ! write potential to hdf5 file
   LELF         =      F    write electronic localiz. function (ELF)
   LORBIT       =     11    0 simple, 1 ext, 2 COOP (PROOUT), +10 PAW based schemes


 Dipole corrections
   LMONO      =      F    monopole corrections only (constant potential shift)
   LDIPOL     =      F    correct potential (dipole corrections)
   IDIPOL     =      0    1-x, 2-y, 3-z, 4-all directions 
   EPSILON    =  1.0000000 bulk dielectric constant
   LVACPOTAV  =      F  vacuum potentials using an averaging scheme for the charge density
   VACPOTFLAT =  0.1000000 required flatness to determine vacuum potential
 Exchange correlation treatment:
   GGA     = PE    functional components
   XC_C    = 1    coefficients multiplying the functional components
   LIBXC   =     F    Libxc                    
   VOSKOWN =     0    Vosko Wilk Nusair interpolation
   LHFCALC =     F    Hartree Fock is set to
   LHFONE  =     F    Hartree Fock one center treatment
   AEXX    =    0.0000 exact exchange contribution

 Parameters of functionals:
   PE:
     No parameter
 
 Van der Waals corrections
   IVDW    =    12    specifies the selected vdW correction

 Linear response parameters
   LEPSILON=     F    determine dielectric tensor
   LRPA    =     F    only Hartree local field effects (RPA)
   LNABLA  =     F    use nabla operator in PAW spheres
   LVEL    =     F    velocity operator in full k-point grid
   CSHIFT  =0.1000    complex shift for real part using Kramers Kronig
   OMEGAMAX=  -1.0    maximum frequency
   DEG_THRESHOLD= 0.2000000E-02 threshold for treating states as degnerate
   RTIME   =   -0.100 relaxation time in fs
  (WPLASMAI=    0.000 imaginary part of plasma frequency in eV, 0.658/RTIME)
   DFIELD  = 0.0000000 0.0000000 0.0000000 field for delta impulse in time
 
  Optional k-point grid parameters
   LKPOINTS_OPT  =     F    use optional k-point grid
   KPOINTS_OPT_MODE=     1    mode for optional k-point grid
 
 Orbital magnetization related:
   ORBITALMAG=     F  switch on orbital magnetization
   LCHIMAG   =     F  perturbation theory with respect to B field
   DQ        =  0.001000  dq finite difference perturbation B field
   LLRAUG    =     F  two centre corrections for induced B field
   LBONE     =     F  B-component reconstruction in AE one-centre
   LVGVCALC  =     T  calculate vGv susceptibility
   LVGVAPPL  =     F  apply vGv susceptibility instead of pGv for G=0

 Random number generation:
   RANDOM_GENERATOR = DEFAULT
   PCG_SEED         = not used


--------------------------------------------------------------------------------------------------------


 Static calculation
 charge density and potential will be updated during run
 spin polarized calculation
 Variant of blocked Davidson
 Davidson routine will perform the subspace rotation
 perform sub-space diagonalisation
    after iterative eigenvector-optimisation
 modified Broyden-mixing scheme, WC =      100.0
 initial mixing is a Kerker type mixing with AMIX =  0.4000 and BMIX =      1.0000
 Hartree-type preconditioning will be used
 using additional bands             8
 reciprocal scheme for non local part
 use partial core corrections
 calculate Harris-corrections to forces 
   (improved forces if not selfconsistent)
 use gradient corrections 
 use of overlap-Matrix (Vanderbilt PP)
 Methfessel and Paxton  Order N= 1 SIGMA  =   0.10


--------------------------------------------------------------------------------------------------------


  energy-cutoff  :      520.00
  volume of cell :       60.11
      direct lattice vectors                 reciprocal lattice vectors
     3.917301575  0.000000000  0.000000000     0.255277767 -0.000000000  0.000000000
     0.000000000  3.917301575  0.000000000     0.000000000  0.255277767  0.000000000
     0.000000000  0.000000000  3.917301575    -0.000000000 -0.000000000  0.255277767

  length of vectors
     3.917301575  3.917301575  3.917301575     0.255277767  0.255277767  0.255277767


 
 k-points in units of 2pi/SCALE and weight: Automatic mesh                          
   0.00000000  0.00000000  0.00000000       0.001
   0.02552778  0.00000000  0.00000000       0.006
   0.05105555  0.00000000  0.00000000       0.006
   0.07658333  0.00000000  0.00000000       0.006
   0.10211111  0.00000000  0.00000000       0.006
   0.12763888  0.00000000  0.00000000       0.003
   0.02552778  0.02552778  0.00000000       0.012
   0.05105555  0.02552778  0.00000000       0.024
   0.07658333  0.02552778  0.00000000       0.024
   0.10211111  0.02552778  0.00000000       0.024
   0.12763888  0.02552778  0.00000000       0.012
   0.05105555  0.05105555  0.00000000       0.012
   0.07658333  0.05105555  0.00000000       0.024
   0.10211111  0.05105555  0.00000000       0.024
   0.12763888  0.05105555  0.00000000       0.012
   0.07658333  0.07658333  0.00000000       0.012
   0.10211111  0.07658333  0.00000000       0.024
   0.12763888  0.07658333  0.00000000       0.012
   0.10211111  0.10211111  0.00000000       0.012
   0.12763888  0.10211111  0.00000000       0.012
   0.12763888  0.12763888  0.00000000       0.003
   0.02552778  0.02552778  0.02552778       0.008
   0.05105555  0.02552778  0.02552778       0.024
   0.07658333  0.02552778  0.02552778       0.024
   0.10211111  0.02552778  0.02552778       0.024
   0.12763888  0.02552778  0.02552778       0.012
   0.05105555  0.05105555  0.02552778       0.024
   0.07658333  0.05105555  0.02552778       0.048
   0.10211111  0.05105555  0.02552778       0.048
   0.12763888  0.05105555  0.02552778       0.024
   0.07658333  0.07658333  0.02552778       0.024
   0.10211111  0.07658333  0.02552778       0.048
   0.12763888  0.07658333  0.02552778       0.024
   0.10211111  0.10211111  0.02552778       0.024
   0.12763888  0.10211111  0.02552778       0.024
   0.12763888  0.12763888  0.02552778       0.006
   0.05105555  0.05105555  0.05105555       0.008
   0.07658333  0.05105555  0.05105555       0.024
   0.10211111  0.05105555  0.05105555       0.024
   0.12763888  0.05105555  0.05105555       0.012
   0.07658333  0.07658333  0.05105555       0.024
   0.10211111  0.07658333  0.05105555       0.048
   0.12763888  0.07658333  0.05105555       0.024
   0.10211111  0.10211111  0.05105555       0.024
   0.12763888  0.10211111  0.05105555       0.024
   0.12763888  0.12763888  0.05105555       0.006
   0.07658333  0.07658333  0.07658333       0.008
   0.10211111  0.07658333  0.07658333       0.024
   0.12763888  0.07658333  0.07658333       0.012
   0.10211111  0.10211111  0.07658333       0.024
   0.12763888  0.10211111  0.07658333       0.024
   0.12763888  0.12763888  0.07658333       0.006
   0.10211111  0.10211111  0.10211111       0.008
   0.12763888  0.10211111  0.10211111       0.012
   0.12763888  0.12763888  0.10211111       0.006
   0.12763888  0.12763888  0.12763888       0.001
 
 k-points in reciprocal lattice and weights: Automatic mesh                          
   0.00000000  0.00000000  0.00000000       0.001
   0.10000000  0.00000000  0.00000000       0.006
   0.20000000  0.00000000  0.00000000       0.006
   0.30000000  0.00000000  0.00000000       0.006
   0.40000000  0.00000000  0.00000000       0.006
   0.50000000  0.00000000  0.00000000       0.003
   0.10000000  0.10000000  0.00000000       0.012
   0.20000000  0.10000000  0.00000000       0.024
   0.30000000  0.10000000  0.00000000       0.024
   0.40000000  0.10000000  0.00000000       0.024
   0.50000000  0.10000000  0.00000000       0.012
   0.20000000  0.20000000  0.00000000       0.012
   0.30000000  0.20000000  0.00000000       0.024
   0.40000000  0.20000000  0.00000000       0.024
   0.50000000  0.20000000  0.00000000       0.012
   0.30000000  0.30000000  0.00000000       0.012
   0.40000000  0.30000000  0.00000000       0.024
   0.50000000  0.30000000  0.00000000       0.012
   0.40000000  0.40000000  0.00000000       0.012
   0.50000000  0.40000000  0.00000000       0.012
   0.50000000  0.50000000  0.00000000       0.003
   0.10000000  0.10000000  0.10000000       0.008
   0.20000000  0.10000000  0.10000000       0.024
   0.30000000  0.10000000  0.10000000       0.024
   0.40000000  0.10000000  0.10000000       0.024
   0.50000000  0.10000000  0.10000000       0.012
   0.20000000  0.20000000  0.10000000       0.024
   0.30000000  0.20000000  0.10000000       0.048
   0.40000000  0.20000000  0.10000000       0.048
   0.50000000  0.20000000  0.10000000       0.024
   0.30000000  0.30000000  0.10000000       0.024
   0.40000000  0.30000000  0.10000000       0.048
   0.50000000  0.30000000  0.10000000       0.024
   0.40000000  0.40000000  0.10000000       0.024
   0.50000000  0.40000000  0.10000000       0.024
   0.50000000  0.50000000  0.10000000       0.006
   0.20000000  0.20000000  0.20000000       0.008
   0.30000000  0.20000000  0.20000000       0.024
   0.40000000  0.20000000  0.20000000       0.024
   0.50000000  0.20000000  0.20000000       0.012
   0.30000000  0.30000000  0.20000000       0.024
   0.40000000  0.30000000  0.20000000       0.048
   0.50000000  0.30000000  0.20000000       0.024
   0.40000000  0.40000000  0.20000000       0.024
   0.50000000  0.40000000  0.20000000       0.024
   0.50000000  0.50000000  0.20000000       0.006
   0.30000000  0.30000000  0.30000000       0.008
   0.40000000  0.30000000  0.30000000       0.024
   0.50000000  0.30000000  0.30000000       0.012
   0.40000000  0.40000000  0.30000000       0.024
   0.50000000  0.40000000  0.30000000       0.024
   0.50000000  0.50000000  0.30000000       0.006
   0.40000000  0.40000000  0.40000000       0.008
   0.50000000  0.40000000  0.40000000       0.012
   0.50000000  0.50000000  0.40000000       0.006
   0.50000000  0.50000000  0.50000000       0.001
 
 position of ions in fractional coordinates (direct lattice) 
   0.00000000  0.00000000  0.00000000
   0.00000000  0.50000000  0.50000000
   0.50000000  0.00000000  0.50000000
   0.50000000  0.50000000  0.00000000
 
 position of ions in cartesian coordinates  (Angst):
   0.00000000  0.00000000  0.00000000
   0.00000000  1.95865079  1.95865079
   1.95865079  0.00000000  1.95865079
   1.95865079  1.95865079  0.00000000
 


--------------------------------------------------------------------------------------------------------


 k-point     1 :   0.0000 0.0000 0.0000  plane waves:    1647
 k-point     2 :   0.1000 0.0000 0.0000  plane waves:    1631
 k-point     3 :   0.2000 0.0000 0.0000  plane waves:    1631
 k-point     4 :   0.3000 0.0000 0.0000  plane waves:    1622
 k-point     5 :   0.4000 0.0000 0.0000  plane waves:    1618
 k-point     6 :   0.5000 0.0000 0.0000  plane waves:    1622
 k-point     7 :   0.1000 0.1000 0.0000  plane waves:    1633
 k-point     8 :   0.2000 0.1000 0.0000  plane waves:    1630
 k-point     9 :   0.3000 0.1000 0.0000  plane waves:    1611
 k-point    10 :   0.4000 0.1000 0.0000  plane waves:    1617
 k-point    11 :   0.5000 0.1000 0.0000  plane waves:    1614
 k-point    12 :   0.2000 0.2000 0.0000  plane waves:    1624
 k-point    13 :   0.3000 0.2000 0.0000  plane waves:    1608
 k-point    14 :   0.4000 0.2000 0.0000  plane waves:    1627
 k-point    15 :   0.5000 0.2000 0.0000  plane waves:    1614
 k-point    16 :   0.3000 0.3000 0.0000  plane waves:    1610
 k-point    17 :   0.4000 0.3000 0.0000  plane waves:    1623
 k-point    18 :   0.5000 0.3000 0.0000  plane waves:    1618
 k-point    19 :   0.4000 0.4000 0.0000  plane waves:    1620
 k-point    20 :   0.5000 0.4000 0.0000  plane waves:    1624
 k-point    21 :   0.5000 0.5000 0.0000  plane waves:    1628
 k-point    22 :   0.1000 0.1000 0.1000  plane waves:    1635
 k-point    23 :   0.2000 0.1000 0.1000  plane waves:    1618
 k-point    24 :   0.3000 0.1000 0.1000  plane waves:    1628
 k-point    25 :   0.4000 0.1000 0.1000  plane waves:    1617
 k-point    26 :   0.5000 0.1000 0.1000  plane waves:    1610
 k-point    27 :   0.2000 0.2000 0.1000  plane waves:    1618
 k-point    28 :   0.3000 0.2000 0.1000  plane waves:    1618
 k-point    29 :   0.4000 0.2000 0.1000  plane waves:    1618
 k-point    30 :   0.5000 0.2000 0.1000  plane waves:    1610
 k-point    31 :   0.3000 0.3000 0.1000  plane waves:    1612
 k-point    32 :   0.4000 0.3000 0.1000  plane waves:    1612
 k-point    33 :   0.5000 0.3000 0.1000  plane waves:    1612
 k-point    34 :   0.4000 0.4000 0.1000  plane waves:    1618
 k-point    35 :   0.5000 0.4000 0.1000  plane waves:    1626
 k-point    36 :   0.5000 0.5000 0.1000  plane waves:    1632
 k-point    37 :   0.2000 0.2000 0.2000  plane waves:    1623
 k-point    38 :   0.3000 0.2000 0.2000  plane waves:    1622
 k-point    39 :   0.4000 0.2000 0.2000  plane waves:    1623
 k-point    40 :   0.5000 0.2000 0.2000  plane waves:    1610
 k-point    41 :   0.3000 0.3000 0.2000  plane waves:    1621
 k-point    42 :   0.4000 0.3000 0.2000  plane waves:    1614
 k-point    43 :   0.5000 0.3000 0.2000  plane waves:    1620
 k-point    44 :   0.4000 0.4000 0.2000  plane waves:    1612
 k-point    45 :   0.5000 0.4000 0.2000  plane waves:    1626
 k-point    46 :   0.5000 0.5000 0.2000  plane waves:    1624
 k-point    47 :   0.3000 0.3000 0.3000  plane waves:    1610
 k-point    48 :   0.4000 0.3000 0.3000  plane waves:    1620
 k-point    49 :   0.5000 0.3000 0.3000  plane waves:    1622
 k-point    50 :   0.4000 0.4000 0.3000  plane waves:    1618
 k-point    51 :   0.5000 0.4000 0.3000  plane waves:    1612
 k-point    52 :   0.5000 0.5000 0.3000  plane waves:    1612
 k-point    53 :   0.4000 0.4000 0.4000  plane waves:    1628
 k-point    54 :   0.5000 0.4000 0.4000  plane waves:    1626
 k-point    55 :   0.5000 0.5000 0.4000  plane waves:    1604
 k-point    56 :   0.5000 0.5000 0.5000  plane waves:    1640

 maximum and minimum number of plane-waves per node :      1647     1604

 maximum number of plane-waves:      1647
 maximum index in each direction: 
   IXMAX=    7   IYMAX=    7   IZMAX=    7
   IXMIN=   -7   IYMIN=   -7   IZMIN=   -7


 serial   3D FFT for wavefunctions
 parallel 3D FFT for charge:
    minimum data exchange during FFTs selected (reduces bandwidth)


 total amount of memory used by VASP MPI-rank0    88635. kBytes
=======================================================================

   base      :      30000. kBytes
   nonl-proj :      13394. kBytes
   fftplans  :       8118. kBytes
   grid      :       6177. kBytes
   one-center:        124. kBytes
   wavefun   :      30822. kBytes
 
     INWAV:  cpu time      0.0000: real time      0.0000
 Broyden mixing: mesh for mixing (old mesh)
   NGX = 15   NGY = 15   NGZ = 15
  (NGX  = 60   NGY  = 60   NGZ  = 60)
  gives a total of   3375 points

 initial charge density was supplied:
 charge density of overlapping atoms calculated
 number of electron      64.0000000 magnetization       4.0000000
 keeping initial charge density in first step


--------------------------------------------------------------------------------------------------------


 Maximum index for augmentation-charges         34825 (set IRDMAX)


--------------------------------------------------------------------------------------------------------


 First call to EWALD:  gamma=   0.452
 Maximum number of real-space cells 3x 3x 3
 Maximum number of reciprocal cells 3x 3x 3

    FEWALD:  cpu time      0.0004: real time      0.0004


--------------------------------------- Ionic step        1  -------------------------------------------




--------------------------------------- Iteration      1(   1)  ---------------------------------------


    POTLOK:  cpu time      0.0435: real time      0.0435
    SETDIJ:  cpu time      0.4183: real time      0.4758
     EDDAV:  cpu time      3.9551: real time      4.6720
       DOS:  cpu time      0.0008: real time      0.0008
    --------------------------------------------
      LOOP:  cpu time      4.4177: real time      5.1921

 eigenvalue-minimisations  :  9288
 total energy-change (2. order) : 0.7714535E+03  (-0.3993379E+04)
 number of electron      64.0000000 magnetization       4.0000000
 augmentation part       64.0000000 magnetization       4.0000000

 Free energy of the ion-electron system (eV)
  ---------------------------------------------------
  alpha Z        PSCENC =       542.73305656
  Ewald energy   TEWEN  =     -8629.09612564
  -Hartree energ DENC   =     -2225.92554515
  -exchange      EXHF   =         0.00000000
  -V(xc)+E(xc)   XCENC  =       331.53594691
  PAW double counting   =      9031.68406025    -8916.38598993
  entropy T*S    EENTRO =        -0.00076730
  eigenvalues    EBANDS =       150.72404654
  atomic energy  EATOM  =     10486.18486129
  Solvation  Ediel_sol  =         0.00000000
  ---------------------------------------------------
  free energy    TOTEN  =       771.45354353 eV

  energy without entropy =      771.45431082  energy(sigma->0) =      771.45379929


--------------------------------------------------------------------------------------------------------




--------------------------------------- Iteration      1(   2)  ---------------------------------------


     EDDAV:  cpu time      3.9250: real time      4.4479
       DOS:  cpu time      0.0008: real time      0.0008
    --------------------------------------------
      LOOP:  cpu time      3.9258: real time      4.4487

 eigenvalue-minimisations  :  9392
 total energy-change (2. order) :-0.7648029E+03  (-0.7373100E+03)
 number of electron      64.0000000 magnetization       4.0000000
 augmentation part       64.0000000 magnetization       4.0000000

 Free energy of the ion-electron system (eV)
  ---------------------------------------------------
  alpha Z        PSCENC =       542.73305656
  Ewald energy   TEWEN  =     -8629.09612564
  -Hartree energ DENC   =     -2225.92554515
  -exchange      EXHF   =         0.00000000
  -V(xc)+E(xc)   XCENC  =       331.53594691
  PAW double counting   =      9031.68406025    -8916.38598993
  entropy T*S    EENTRO =        -0.00136643
  eigenvalues    EBANDS =      -614.07828502
  atomic energy  EATOM  =     10486.18486129
  Solvation  Ediel_sol  =         0.00000000
  ---------------------------------------------------
  free energy    TOTEN  =         6.65061284 eV

  energy without entropy =        6.65197926  energy(sigma->0) =        6.65106831


--------------------------------------------------------------------------------------------------------




--------------------------------------- Iteration      1(   3)  ---------------------------------------


     EDDAV:  cpu time      3.9911: real time      3.9913
       DOS:  cpu time      0.0009: real time      0.0009
    --------------------------------------------
      LOOP:  cpu time      3.9920: real time      3.9922

 eigenvalue-minimisations  : 10000
 total energy-change (2. order) :-0.2802668E+02  (-0.2741621E+02)
 number of electron      64.0000000 magnetization       4.0000000
 augmentation part       64.0000000 magnetization       4.0000000

 Free energy of the ion-electron system (eV)
  ---------------------------------------------------
  alpha Z        PSCENC =       542.73305656
  Ewald energy   TEWEN  =     -8629.09612564
  -Hartree energ DENC   =     -2225.92554515
  -exchange      EXHF   =         0.00000000
  -V(xc)+E(xc)   XCENC  =       331.53594691
  PAW double counting   =      9031.68406025    -8916.38598993
  entropy T*S    EENTRO =        -0.00179973
  eigenvalues    EBANDS =      -642.10452761
  atomic energy  EATOM  =     10486.18486129
  Solvation  Ediel_sol  =         0.00000000
  ---------------------------------------------------
  free energy    TOTEN  =       -21.37606306 eV

  energy without entropy =      -21.37426333  energy(sigma->0) =      -21.37546315


--------------------------------------------------------------------------------------------------------




--------------------------------------- Iteration      1(   4)  ---------------------------------------


     EDDAV:  cpu time      3.8370: real time      3.8376
       DOS:  cpu time      0.0008: real time      0.0008
    --------------------------------------------
      LOOP:  cpu time      3.8378: real time      3.8384

 eigenvalue-minimisations  :  9576
 total energy-change (2. order) :-0.3006934E+00  (-0.3006379E+00)
 number of electron      64.0000000 magnetization       4.0000000
 augmentation part       64.0000000 magnetization       4.0000000

 Free energy of the ion-electron system (eV)
  ---------------------------------------------------
  alpha Z        PSCENC =       542.73305656
  Ewald energy   TEWEN  =     -8629.09612564
  -Hartree energ DENC   =     -2225.92554515
  -exchange      EXHF   =         0.00000000
  -V(xc)+E(xc)   XCENC  =       331.53594691
  PAW double counting   =      9031.68406025    -8916.38598993
  entropy T*S    EENTRO =        -0.00175120
  eigenvalues    EBANDS =      -642.40526953
  atomic energy  EATOM  =     10486.18486129
  Solvation  Ediel_sol  =         0.00000000
  ---------------------------------------------------
  free energy    TOTEN  =       -21.67675645 eV

  energy without entropy =      -21.67500524  energy(sigma->0) =      -21.67617271


--------------------------------------------------------------------------------------------------------




--------------------------------------- Iteration      1(   5)  ---------------------------------------


     EDDAV:  cpu time      3.9275: real time      3.9275
       DOS:  cpu time      0.0008: real time      0.0008
    CHARGE:  cpu time      0.3830: real time      0.3830
    MIXING:  cpu time      0.0013: real time      0.0013
    --------------------------------------------
      LOOP:  cpu time      4.3125: real time      4.3126

 eigenvalue-minimisations  :  9856
 total energy-change (2. order) :-0.4911935E-02  (-0.4911888E-02)
 number of electron      64.0000003 magnetization       1.9147167
 augmentation part       29.8678256 magnetization       1.0642303

 Broyden mixing:
  rms(total) = 0.10774E+01    rms(broyden)= 0.10774E+01
  rms(prec ) = 0.18702E+01
  weight for this iteration     100.00

 Free energy of the ion-electron system (eV)
  ---------------------------------------------------
  alpha Z        PSCENC =       542.73305656
  Ewald energy   TEWEN  =     -8629.09612564
  -Hartree energ DENC   =     -2225.92554515
  -exchange      EXHF   =         0.00000000
  -V(xc)+E(xc)   XCENC  =       331.53594691
  PAW double counting   =      9031.68406025    -8916.38598993
  entropy T*S    EENTRO =        -0.00175104
  eigenvalues    EBANDS =      -642.41018163
  atomic energy  EATOM  =     10486.18486129
  Solvation  Ediel_sol  =         0.00000000
  ---------------------------------------------------
  free energy    TOTEN  =       -21.68166838 eV

  energy without entropy =      -21.67991735  energy(sigma->0) =      -21.68108470


--------------------------------------------------------------------------------------------------------




--------------------------------------- Iteration      1(   6)  ---------------------------------------


    POTLOK:  cpu time      0.0399: real time      0.0399
    SETDIJ:  cpu time      0.4454: real time      0.4455
     EDDAV:  cpu time      3.8500: real time      3.8526
       DOS:  cpu time      0.0008: real time      0.0008
    CHARGE:  cpu time      0.3836: real time      0.3844
    MIXING:  cpu time      0.0012: real time      0.0012
    --------------------------------------------
      LOOP:  cpu time      4.7210: real time      4.7244

 eigenvalue-minimisations  :  9624
 total energy-change (2. order) : 0.8551152E+00  (-0.3771004E+00)
 number of electron      64.0000003 magnetization       1.6685092
 augmentation part       30.6961094 magnetization       1.0093032

 Broyden mixing:
  rms(total) = 0.22722E+00    rms(broyden)= 0.22720E+00
  rms(prec ) = 0.27396E+00
  weight for this iteration     100.00

 eigenvalues of (default mixing * dielectric matrix)
  average eigenvalue GAMMA=   0.9957
  0.9957

 Free energy of the ion-electron system (eV)
  ---------------------------------------------------
  alpha Z        PSCENC =       542.73305656
  Ewald energy   TEWEN  =     -8629.09612564
  -Hartree energ DENC   =     -2156.82162576
  -exchange      EXHF   =         0.00000000
  -V(xc)+E(xc)   XCENC  =       328.30730836
  PAW double counting   =      9250.40171658    -9142.97490696
  entropy T*S    EENTRO =        -0.00431482
  eigenvalues    EBANDS =      -699.55652278
  atomic energy  EATOM  =     10486.18486129
  Solvation  Ediel_sol  =         0.00000000
  ---------------------------------------------------
  free energy    TOTEN  =       -20.82655317 eV

  energy without entropy =      -20.82223835  energy(sigma->0) =      -20.82511489


--------------------------------------------------------------------------------------------------------




--------------------------------------- Iteration      1(   7)  ---------------------------------------


    POTLOK:  cpu time      0.0399: real time      0.0399
    SETDIJ:  cpu time      0.4173: real time      0.4173
     EDDAV:  cpu time      3.8337: real time      3.8348
       DOS:  cpu time      0.0008: real time      0.0008
    CHARGE:  cpu time      0.3832: real time      0.3835
    MIXING:  cpu time      0.0013: real time      0.0013
    --------------------------------------------
      LOOP:  cpu time      4.6762: real time      4.6777

 eigenvalue-minimisations  :  9536
 total energy-change (2. order) : 0.3982357E-02  (-0.3940952E-02)
 number of electron      64.0000003 magnetization       1.5609899
 augmentation part       30.6775417 magnetization       0.9730331

 Broyden mixing:
  rms(total) = 0.14379E+00    rms(broyden)= 0.14379E+00
  rms(prec ) = 0.17214E+00
  weight for this iteration     100.00

 eigenvalues of (default mixing * dielectric matrix)
  average eigenvalue GAMMA=   0.9593
  1.2474  0.6711

 Free energy of the ion-electron system (eV)
  ---------------------------------------------------
  alpha Z        PSCENC =       542.73305656
  Ewald energy   TEWEN  =     -8629.09612564
  -Hartree energ DENC   =     -2156.08890345
  -exchange      EXHF   =         0.00000000
  -V(xc)+E(xc)   XCENC  =       328.26293796
  PAW double counting   =      9380.06874987    -9273.97877092
  entropy T*S    EENTRO =        -0.00658106
  eigenvalues    EBANDS =      -698.90179542
  atomic energy  EATOM  =     10486.18486129
  Solvation  Ediel_sol  =         0.00000000
  ---------------------------------------------------
  free energy    TOTEN  =       -20.82257081 eV

  energy without entropy =      -20.81598975  energy(sigma->0) =      -20.82037712


--------------------------------------------------------------------------------------------------------




--------------------------------------- Iteration      1(   8)  ---------------------------------------


    POTLOK:  cpu time      0.0400: real time      0.0400
    SETDIJ:  cpu time      0.4155: real time      0.4155
     EDDAV:  cpu time      4.1600: real time      4.3244
       DOS:  cpu time      0.0008: real time      0.0008
    CHARGE:  cpu time      0.4916: real time      0.4917
    MIXING:  cpu time      0.0015: real time      0.0015
    --------------------------------------------
      LOOP:  cpu time      5.1093: real time      5.2739

 eigenvalue-minimisations  :  9808
 total energy-change (2. order) : 0.3371898E-02  (-0.4055556E-03)
 number of electron      64.0000003 magnetization       1.5293560
 augmentation part       30.6787059 magnetization       0.9408721

 Broyden mixing:
  rms(total) = 0.82178E-01    rms(broyden)= 0.82178E-01
  rms(prec ) = 0.95325E-01
  weight for this iteration     100.00

 eigenvalues of (default mixing * dielectric matrix)
  average eigenvalue GAMMA=   1.2511
  2.1901  0.9559  0.6073

 Free energy of the ion-electron system (eV)
  ---------------------------------------------------
  alpha Z        PSCENC =       542.73305656
  Ewald energy   TEWEN  =     -8629.09612564
  -Hartree energ DENC   =     -2154.47757310
  -exchange      EXHF   =         0.00000000
  -V(xc)+E(xc)   XCENC  =       328.18127587
  PAW double counting   =      9475.48908613    -9370.28278954
  entropy T*S    EENTRO =        -0.00684718
  eigenvalues    EBANDS =      -699.54414330
  atomic energy  EATOM  =     10486.18486129
  Solvation  Ediel_sol  =         0.00000000
  ---------------------------------------------------
  free energy    TOTEN  =       -20.81919891 eV

  energy without entropy =      -20.81235174  energy(sigma->0) =      -20.81691652


--------------------------------------------------------------------------------------------------------




--------------------------------------- Iteration      1(   9)  ---------------------------------------


    POTLOK:  cpu time      0.0409: real time      0.0409
    SETDIJ:  cpu time      0.4153: real time      0.4154
     EDDAV:  cpu time      3.9262: real time      3.9276
       DOS:  cpu time      0.0009: real time      0.0008
    CHARGE:  cpu time      0.3818: real time      0.3820
    MIXING:  cpu time      0.0012: real time      0.0012
    --------------------------------------------
      LOOP:  cpu time      4.7663: real time      4.7680

 eigenvalue-minimisations  :  9912
 total energy-change (2. order) : 0.5700277E-03  (-0.1543017E-03)
 number of electron      64.0000003 magnetization       1.5464846
 augmentation part       30.6822343 magnetization       0.9698641

 Broyden mixing:
  rms(total) = 0.91345E-02    rms(broyden)= 0.91338E-02
  rms(prec ) = 0.97869E-02
  weight for this iteration     100.00

 eigenvalues of (default mixing * dielectric matrix)
  average eigenvalue GAMMA=   1.2467
  2.5300  1.0495  0.7814  0.6259

 Free energy of the ion-electron system (eV)
  ---------------------------------------------------
  alpha Z        PSCENC =       542.73305656
  Ewald energy   TEWEN  =     -8629.09612564
  -Hartree energ DENC   =     -2152.86903543
  -exchange      EXHF   =         0.00000000
  -V(xc)+E(xc)   XCENC  =       328.10797451
  PAW double counting   =      9571.97729947    -9467.53844407
  entropy T*S    EENTRO =        -0.00729685
  eigenvalues    EBANDS =      -700.31091871
  atomic energy  EATOM  =     10486.18486129
  Solvation  Ediel_sol  =         0.00000000
  ---------------------------------------------------
  free energy    TOTEN  =       -20.81862888 eV

  energy without entropy =      -20.81133203  energy(sigma->0) =      -20.81619660


--------------------------------------------------------------------------------------------------------




--------------------------------------- Iteration      1(  10)  ---------------------------------------


    POTLOK:  cpu time      0.0409: real time      0.0409
    SETDIJ:  cpu time      0.4172: real time      0.4172
     EDDAV:  cpu time      3.9688: real time      3.9697
       DOS:  cpu time      0.0008: real time      0.0008
    CHARGE:  cpu time      0.3922: real time      0.3922
    MIXING:  cpu time      0.0013: real time      0.0013
    --------------------------------------------
      LOOP:  cpu time      4.8212: real time      4.8221

 eigenvalue-minimisations  :  9696
 total energy-change (2. order) :-0.1436364E-03  (-0.1387385E-04)
 number of electron      64.0000003 magnetization       1.5523897
 augmentation part       30.6830335 magnetization       0.9751441

 Broyden mixing:
  rms(total) = 0.21707E-02    rms(broyden)= 0.21703E-02
  rms(prec ) = 0.36068E-02
  weight for this iteration     100.00

 eigenvalues of (default mixing * dielectric matrix)
  average eigenvalue GAMMA=   1.1902
  2.5265  1.1479  0.9273  0.6211  0.7283

 Free energy of the ion-electron system (eV)
  ---------------------------------------------------
  alpha Z        PSCENC =       542.73305656
  Ewald energy   TEWEN  =     -8629.09612564
  -Hartree energ DENC   =     -2152.90340885
  -exchange      EXHF   =         0.00000000
  -V(xc)+E(xc)   XCENC  =       328.11043124
  PAW double counting   =      9577.94028071    -9473.41362566
  entropy T*S    EENTRO =        -0.00729254
  eigenvalues    EBANDS =      -700.36694962
  atomic energy  EATOM  =     10486.18486129
  Solvation  Ediel_sol  =         0.00000000
  ---------------------------------------------------
  free energy    TOTEN  =       -20.81877252 eV

  energy without entropy =      -20.81147998  energy(sigma->0) =      -20.81634167


--------------------------------------------------------------------------------------------------------




--------------------------------------- Iteration      1(  11)  ---------------------------------------


    POTLOK:  cpu time      0.0401: real time      0.0401
    SETDIJ:  cpu time      0.4185: real time      0.4185
     EDDAV:  cpu time      3.6404: real time      3.6423
       DOS:  cpu time      0.0009: real time      0.0009
    CHARGE:  cpu time      0.3821: real time      0.3822
    MIXING:  cpu time      0.0014: real time      0.0014
    --------------------------------------------
      LOOP:  cpu time      4.4835: real time      4.4854

 eigenvalue-minimisations  :  8856
 total energy-change (2. order) :-0.3104625E-05  (-0.5352911E-06)
 number of electron      64.0000003 magnetization       1.5558321
 augmentation part       30.6829532 magnetization       0.9771541

 Broyden mixing:
  rms(total) = 0.10802E-02    rms(broyden)= 0.10802E-02
  rms(prec ) = 0.20165E-02
  weight for this iteration     100.00

 eigenvalues of (default mixing * dielectric matrix)
  average eigenvalue GAMMA=   1.1986
  2.5208  1.4186  0.9577  0.9577  0.6226  0.7144

 Free energy of the ion-electron system (eV)
  ---------------------------------------------------
  alpha Z        PSCENC =       542.73305656
  Ewald energy   TEWEN  =     -8629.09612564
  -Hartree energ DENC   =     -2153.01331161
  -exchange      EXHF   =         0.00000000
  -V(xc)+E(xc)   XCENC  =       328.11551307
  PAW double counting   =      9579.74907677    -9475.12479370
  entropy T*S    EENTRO =        -0.00725185
  eigenvalues    EBANDS =      -700.35980052
  atomic energy  EATOM  =     10486.18486129
  Solvation  Ediel_sol  =         0.00000000
  ---------------------------------------------------
  free energy    TOTEN  =       -20.81877563 eV

  energy without entropy =      -20.81152378  energy(sigma->0) =      -20.81635834


--------------------------------------------------------------------------------------------------------




--------------------------------------- Iteration      1(  12)  ---------------------------------------


    POTLOK:  cpu time      0.0400: real time      0.0401
    SETDIJ:  cpu time      0.4199: real time      0.4199
     EDDAV:  cpu time      3.1515: real time      3.1535
       DOS:  cpu time      0.0008: real time      0.0008
    CHARGE:  cpu time      0.3781: real time      0.3782
    MIXING:  cpu time      0.0013: real time      0.0013
    --------------------------------------------
      LOOP:  cpu time      3.9916: real time      3.9938

 eigenvalue-minimisations  :  7032
 total energy-change (2. order) : 0.5205709E-05  (-0.2619956E-06)
 number of electron      64.0000003 magnetization       1.5565042
 augmentation part       30.6828249 magnetization       0.9769856

 Broyden mixing:
  rms(total) = 0.28727E-03    rms(broyden)= 0.28714E-03
  rms(prec ) = 0.35468E-03
  weight for this iteration     100.00

 eigenvalues of (default mixing * dielectric matrix)
  average eigenvalue GAMMA=   1.3099
  2.5620  2.4739  1.0521  0.9749  0.6232  0.7415  0.7415

 Free energy of the ion-electron system (eV)
  ---------------------------------------------------
  alpha Z        PSCENC =       542.73305656
  Ewald energy   TEWEN  =     -8629.09612564
  -Hartree energ DENC   =     -2153.15241406
  -exchange      EXHF   =         0.00000000
  -V(xc)+E(xc)   XCENC  =       328.12190546
  PAW double counting   =      9581.81419764    -9477.06808337
  entropy T*S    EENTRO =        -0.00720743
  eigenvalues    EBANDS =      -700.34896087
  atomic energy  EATOM  =     10486.18486129
  Solvation  Ediel_sol  =         0.00000000
  ---------------------------------------------------
  free energy    TOTEN  =       -20.81877042 eV

  energy without entropy =      -20.81156299  energy(sigma->0) =      -20.81636794


--------------------------------------------------------------------------------------------------------




--------------------------------------- Iteration      1(  13)  ---------------------------------------


    POTLOK:  cpu time      0.0391: real time      0.0392
    SETDIJ:  cpu time      0.4159: real time      0.4159
     EDDAV:  cpu time      2.5706: real time      2.5734
       DOS:  cpu time      0.0008: real time      0.0008
    --------------------------------------------
      LOOP:  cpu time      3.0264: real time      3.0293

 eigenvalue-minimisations  :  4920
 total energy-change (2. order) : 0.9200448E-06  (-0.3054126E-07)
 number of electron      64.0000003 magnetization       1.5565042
 augmentation part       30.6828249 magnetization       0.9769856

 Free energy of the ion-electron system (eV)
  ---------------------------------------------------
  alpha Z        PSCENC =       542.73305656
  Ewald energy   TEWEN  =     -8629.09612564
  -Hartree energ DENC   =     -2153.17363691
  -exchange      EXHF   =         0.00000000
  -V(xc)+E(xc)   XCENC  =       328.12291702
  PAW double counting   =      9582.22055034    -9477.45419160
  entropy T*S    EENTRO =        -0.00720081
  eigenvalues    EBANDS =      -700.34899974
  atomic energy  EATOM  =     10486.18486129
  Solvation  Ediel_sol  =         0.00000000
  ---------------------------------------------------
  free energy    TOTEN  =       -20.81876950 eV

  energy without entropy =      -20.81156869  energy(sigma->0) =      -20.81636923


--------------------------------------------------------------------------------------------------------




 average (electrostatic) potential at core
  the test charge radii are     1.0504
  (the norm of the test charge is              1.0000)
       1 -74.6101       2 -74.6101       3 -74.6101       4 -74.6101
 
 
 
 E-fermi :   9.3412     XC(G=0): -13.2469     alpha+bet :-16.2254

 val. band max:        9.3393801920   @ k =   0.5000   0.2000   0.1000
 cond. band min:       9.3436615643   @ k =   0.5000   0.2000   0.0000
 fundamental gap:      0.0042813724
 Fermi energy:         9.3411847029

 spin component 1

 k-point     1 :       0.0000    0.0000    0.0000
  band No.  band energies     occupation 
      1     -40.8304      1.00000
      2     -40.8304      1.00000
      3     -40.8304      1.00000
      4     -40.6126      1.00000
      5     -40.6126      1.00000
      6     -40.6126      1.00000
      7     -40.6126      1.00000
      8     -40.6126      1.00000
      9     -40.6126      1.00000
     10     -40.4695      1.00000
     11     -40.4695      1.00000
     12     -40.4695      1.00000
     13       2.2919      1.00000
     14       3.9923      1.00000
     15       3.9923      1.00000
     16       3.9923      1.00000
     17       4.2227      1.00000
     18       4.2227      1.00000
     19       4.2227      1.00000
     20       6.3999      1.00000
     21       6.3999      1.00000
     22       6.3999      1.00000
     23       7.9923      1.00000
     24       7.9923      1.00000
     25       9.1247      1.00453
     26       9.1247      1.00453
     27       9.1247      1.00453
     28       9.4083      0.05078
     29       9.4083      0.05078
     30       9.4083      0.05078
     31       9.4083      0.05078
     32       9.4083      0.05078
     33       9.4083      0.05078
     34      12.6499      0.00000
     35      12.6499      0.00000
     36      12.6499      0.00000
     37      19.8138      0.00000
     38      19.8138      0.00000
     39      19.8138      0.00000
     40      22.4058      0.00000

 k-point     2 :       0.1000    0.0000    0.0000
  band No.  band energies     occupation 
      1     -40.8251      1.00000
      2     -40.8251      1.00000
      3     -40.8219      1.00000
      4     -40.6180      1.00000
      5     -40.6180      1.00000
      6     -40.6129      1.00000
      7     -40.6129      1.00000
      8     -40.6092      1.00000
      9     -40.6092      1.00000
     10     -40.4787      1.00000
     11     -40.4730      1.00000
     12     -40.4730      1.00000
     13       2.4120      1.00000
     14       4.0489      1.00000
     15       4.0685      1.00000
     16       4.0685      1.00000
     17       4.2679      1.00000
     18       4.2913      1.00000
     19       4.2913      1.00000
     20       6.3358      1.00000
     21       6.4532      1.00000
     22       6.4532      1.00000
     23       7.9259      1.00000
     24       8.0178      1.00000
     25       9.0319      1.00006
     26       9.0319      1.00006
     27       9.0335      1.00006
     28       9.0335      1.00006
     29       9.0946      1.00135
     30       9.2998      0.81909
     31       9.2998      0.81909
     32       9.4085      0.05003
     33       9.4085      0.05003
     34      12.0679      0.00000
     35      13.1096      0.00000
     36      13.1096      0.00000
     37      19.7892      0.00000
     38      19.7892      0.00000
     39      20.5414      0.00000
     40      22.1670      0.00000

 k-point     3 :       0.2000    0.0000    0.0000
  band No.  band energies     occupation 
      1     -40.8098      1.00000
      2     -40.8098      1.00000
      3     -40.7974      1.00000
      4     -40.6336      1.00000
      5     -40.6336      1.00000
      6     -40.6136      1.00000
      7     -40.6136      1.00000
      8     -40.5990      1.00000
      9     -40.5990      1.00000
     10     -40.5054      1.00000
     11     -40.4832      1.00000
     12     -40.4832      1.00000
     13       2.7623      1.00000
     14       4.2050      1.00000
     15       4.2832      1.00000
     16       4.2832      1.00000
     17       4.4005      1.00000
     18       4.4963      1.00000
     19       4.4963      1.00000
     20       6.1537      1.00000
     21       6.6115      1.00000
     22       6.6115      1.00000
     23       7.7433      1.00000
     24       8.0926      1.00000
     25       8.2492      1.00000
     26       8.2492      1.00000
     27       8.7771      1.00000
     28       8.7771      1.00000
     29       9.0022      1.00001
     30       9.0022      1.00001
     31       9.0079      1.00001
     32       9.4089      0.04823
     33       9.4089      0.04823
     34      10.7879     -0.00000
     35      14.1389      0.00000
     36      14.1389      0.00000
     37      19.7205      0.00000
     38      19.7205      0.00000
     39      21.5135      0.00000
     40      21.5135      0.00000

 k-point     4 :       0.3000    0.0000    0.0000
  band No.  band energies     occupation 
      1     -40.7859      1.00000
      2     -40.7859      1.00000
      3     -40.7587      1.00000
      4     -40.6579      1.00000
      5     -40.6579      1.00000
      6     -40.6144      1.00000
      7     -40.6144      1.00000
      8     -40.5833      1.00000
      9     -40.5833      1.00000
     10     -40.5467      1.00000
     11     -40.4991      1.00000
     12     -40.4991      1.00000
     13       3.3044      1.00000
     14       4.4132      1.00000
     15       4.5907      1.00000
     16       4.5907      1.00000
     17       4.6126      1.00000
     18       4.8355      1.00000
     19       4.8355      1.00000
     20       5.8813      1.00000
     21       6.8696      1.00000
     22       6.8696      1.00000
     23       7.4005      1.00000
     24       7.4005      1.00000
     25       7.4999      1.00000
     26       8.2107      1.00000
     27       8.4143      1.00000
     28       8.4143      1.00000
     29       8.5808      1.00000
     30       8.5808      1.00000
     31       8.8751      1.00000
     32       9.3875      0.15066
     33       9.4095      0.04596
     34       9.4095      0.04596
     35      15.3873      0.00000
     36      15.3873      0.00000
     37      19.6244      0.00000
     38      19.6244      0.00000
     39      20.5412      0.00000
     40      20.5412      0.00000

 k-point     5 :       0.4000    0.0000    0.0000
  band No.  band energies     occupation 
      1     -40.7557      1.00000
      2     -40.7557      1.00000
      3     -40.7095      1.00000
      4     -40.6884      1.00000
      5     -40.6884      1.00000
      6     -40.6151      1.00000
      7     -40.6151      1.00000
      8     -40.5980      1.00000
      9     -40.5634      1.00000
     10     -40.5634      1.00000
     11     -40.5191      1.00000
     12     -40.5191      1.00000
     13       3.9389      1.00000
     14       4.5612      1.00000
     15       4.8905      1.00000
     16       4.8925      1.00000
     17       4.8925      1.00000
     18       5.3047      1.00000
     19       5.3047      1.00000
     20       5.5554      1.00000
     21       6.6024      1.00000
     22       6.6024      1.00000
     23       7.2177      1.00000
     24       7.2177      1.00000
     25       7.3215      1.00000
     26       8.0646      1.00000
     27       8.0646      1.00000
     28       8.1072      1.00000
     29       8.1072      1.00000
     30       8.1890      1.00000
     31       8.3624      1.00000
     32       8.7115      1.00000
     33       9.4101      0.04413
     34       9.4101      0.04413
     35      16.7195      0.00000
     36      16.7195      0.00000
     37      19.3622      0.00000
     38      19.3622      0.00000
     39      19.5351      0.00000
     40      19.5351      0.00000

 k-point     6 :       0.5000    0.0000    0.0000
  band No.  band energies     occupation 
      1     -40.7221      1.00000
      2     -40.7221      1.00000
      3     -40.7221      1.00000
      4     -40.7221      1.00000
      5     -40.6542      1.00000
      6     -40.6542      1.00000
      7     -40.6154      1.00000
      8     -40.6154      1.00000
      9     -40.5413      1.00000
     10     -40.5413      1.00000
     11     -40.5413      1.00000
     12     -40.5413      1.00000
     13       4.4372      1.00000
     14       4.4372      1.00000
     15       5.0276      1.00000
     16       5.0276      1.00000
     17       5.2138      1.00000
     18       5.2138      1.00000
     19       5.8973      1.00000
     20       5.8973      1.00000
     21       5.8973      1.00000
     22       5.8973      1.00000
     23       7.4651      1.00000
     24       7.4651      1.00000
     25       7.6392      1.00000
     26       7.6392      1.00000
     27       7.6392      1.00000
     28       7.6392      1.00000
     29       7.9105      1.00000
     30       7.9105      1.00000
     31       8.5347      1.00000
     32       8.5347      1.00000
     33       9.4103      0.04338
     34       9.4103      0.04338
     35      18.0649      0.00000
     36      18.0649      0.00000
     37      18.0649      0.00000
     38      18.0649      0.00000
     39      19.4977      0.00000
     40      19.4977      0.00000

 k-point     7 :       0.1000    0.1000    0.0000
  band No.  band energies     occupation 
      1     -40.8199      1.00000
      2     -40.8174      1.00000
      3     -40.8174      1.00000
      4     -40.6285      1.00000
      5     -40.6145      1.00000
      6     -40.6145      1.00000
      7     -40.6091      1.00000
      8     -40.6091      1.00000
      9     -40.6076      1.00000
     10     -40.4926      1.00000
     11     -40.4766      1.00000
     12     -40.4714      1.00000
     13       2.5297      1.00000
     14       4.1257      1.00000
     15       4.1257      1.00000
     16       4.1298      1.00000
     17       4.3351      1.00000
     18       4.3351      1.00000
     19       4.3706      1.00000
     20       6.3082      1.00000
     21       6.4728      1.00000
     22       6.5005      1.00000
     23       7.9078      1.00000
     24       8.0034      1.00000
     25       8.7909      1.00000
     26       8.8366      1.00000
     27       8.8366      1.00000
     28       8.9490      1.00000
     29       9.0825      1.00078
     30       9.0825      1.00078
     31       9.2996      0.82058
     32       9.2996      0.82058
     33       9.3363      0.54130
     34      12.5240      0.00000
     35      12.5240      0.00000
     36      13.5070      0.00000
     37      19.7515      0.00000
     38      20.5269      0.00000
     39      20.5269      0.00000
     40      21.1863      0.00000

 k-point     8 :       0.2000    0.1000    0.0000
  band No.  band energies     occupation 
      1     -40.8047      1.00000
      2     -40.8041      1.00000
      3     -40.7949      1.00000
      4     -40.6468      1.00000
      5     -40.6300      1.00000
      6     -40.6089      1.00000
      7     -40.6043      1.00000
      8     -40.6043      1.00000
      9     -40.5981      1.00000
     10     -40.5216      1.00000
     11     -40.4869      1.00000
     12     -40.4781      1.00000
     13       2.8724      1.00000
     14       4.2843      1.00000
     15       4.3102      1.00000
     16       4.3430      1.00000
     17       4.4639      1.00000
     18       4.5362      1.00000
     19       4.5976      1.00000
     20       6.1507      1.00000
     21       6.6140      1.00000
     22       6.6374      1.00000
     23       7.7543      1.00000
     24       8.0764      1.00000
     25       8.0814      1.00000
     26       8.1308      1.00000
     27       8.4855      1.00000
     28       8.7099      1.00000
     29       8.8102      1.00000
     30       9.0009      1.00001
     31       9.0155      1.00002
     32       9.2988      0.82543
     33       9.2989      0.82486
     34      11.2733     -0.00000
     35      13.5025      0.00000
     36      14.4540      0.00000
     37      19.5497      0.00000
     38      20.2804      0.00000
     39      20.4754      0.00000
     40      21.7348      0.00000

 k-point     9 :       0.3000    0.1000    0.0000
  band No.  band energies     occupation 
      1     -40.7835      1.00000
      2     -40.7810      1.00000
      3     -40.7594      1.00000
      4     -40.6705      1.00000
      5     -40.6540      1.00000
      6     -40.6084      1.00000
      7     -40.6037      1.00000
      8     -40.5883      1.00000
      9     -40.5811      1.00000
     10     -40.5620      1.00000
     11     -40.5030      1.00000
     12     -40.4927      1.00000
     13       3.4028      1.00000
     14       4.4968      1.00000
     15       4.5935      1.00000
     16       4.6549      1.00000
     17       4.6698      1.00000
     18       4.8684      1.00000
     19       4.9400      1.00000
     20       5.8930      1.00000
     21       6.8329      1.00000
     22       6.8681      1.00000
     23       7.2614      1.00000
     24       7.3462      1.00000
     25       7.5586      1.00000
     26       8.0012      1.00000
     27       8.2171      1.00000
     28       8.3688      1.00000
     29       8.4479      1.00000
     30       8.5785      1.00000
     31       8.8517      1.00000
     32       9.2914      0.86874
     33       9.2974      0.83384
     34       9.9767     -0.00000
     35      14.6390      0.00000
     36      15.6501      0.00000
     37      18.8402      0.00000
     38      19.9298      0.00000
     39      20.3482      0.00000
     40      20.7518      0.00000

 k-point    10 :       0.4000    0.1000    0.0000
  band No.  band energies     occupation 
      1     -40.7573      1.00000
      2     -40.7510      1.00000
      3     -40.7141      1.00000
      4     -40.6983      1.00000
      5     -40.6843      1.00000
      6     -40.6107      1.00000
      7     -40.6075      1.00000
      8     -40.6046      1.00000
      9     -40.5681      1.00000
     10     -40.5597      1.00000
     11     -40.5233      1.00000
     12     -40.5129      1.00000
     13       4.0257      1.00000
     14       4.6489      1.00000
     15       4.9160      1.00000
     16       4.9390      1.00000
     17       4.9618      1.00000
     18       5.3270      1.00000
     19       5.3564      1.00000
     20       5.5805      1.00000
     21       6.5051      1.00000
     22       6.5854      1.00000
     23       6.9528      1.00000
     24       7.2149      1.00000
     25       7.4497      1.00000
     26       7.5763      1.00000
     27       8.0416      1.00000
     28       8.0897      1.00000
     29       8.1041      1.00000
     30       8.4044      1.00000
     31       8.5256      1.00000
     32       9.0334      1.00006
     33       9.2913      0.86961
     34       9.2955      0.84556
     35      15.7924      0.00000
     36      16.9515      0.00000
     37      17.9007      0.00000
     38      19.5702      0.00000
     39      19.8832      0.00000
     40      20.1359      0.00000

 k-point    11 :       0.5000    0.1000    0.0000
  band No.  band energies     occupation 
      1     -40.7280      1.00000
      2     -40.7280      1.00000
      3     -40.7177      1.00000
      4     -40.7177      1.00000
      5     -40.6630      1.00000
      6     -40.6630      1.00000
      7     -40.6061      1.00000
      8     -40.6061      1.00000
      9     -40.5457      1.00000
     10     -40.5457      1.00000
     11     -40.5361      1.00000
     12     -40.5361      1.00000
     13       4.5227      1.00000
     14       4.5227      1.00000
     15       5.0896      1.00000
     16       5.0896      1.00000
     17       5.2515      1.00000
     18       5.2515      1.00000
     19       5.8629      1.00000
     20       5.8629      1.00000
     21       5.9038      1.00000
     22       5.9038      1.00000
     23       7.0496      1.00000
     24       7.0496      1.00000
     25       7.6359      1.00000
     26       7.6359      1.00000
     27       7.9128      1.00000
     28       7.9128      1.00000
     29       7.9715      1.00000
     30       7.9715      1.00000
     31       8.6383      1.00000
     32       8.6383      1.00000
     33       9.2932      0.85889
     34       9.2932      0.85889
     35      16.8888      0.00000
     36      16.8888      0.00000
     37      18.2797      0.00000
     38      18.2797      0.00000
     39      19.9564      0.00000
     40      19.9564      0.00000

 k-point    12 :       0.2000    0.2000    0.0000
  band No.  band energies     occupation 
      1     -40.7899      1.00000
      2     -40.7875      1.00000
      3     -40.7875      1.00000
      4     -40.6690      1.00000
      5     -40.6194      1.00000
      6     -40.6194      1.00000
      7     -40.5956      1.00000
      8     -40.5956      1.00000
      9     -40.5934      1.00000
     10     -40.5539      1.00000
     11     -40.4977      1.00000
     12     -40.4775      1.00000
     13       3.1926      1.00000
     14       4.4271      1.00000
     15       4.5094      1.00000
     16       4.5094      1.00000
     17       4.6532      1.00000
     18       4.6532      1.00000
     19       4.8517      1.00000
     20       6.0845      1.00000
     21       6.6848      1.00000
     22       6.7099      1.00000
     23       7.6993      1.00000
     24       7.7051      1.00000
     25       7.7051      1.00000
     26       7.7490      1.00000
     27       8.1317      1.00000
     28       8.5157      1.00000
     29       8.7969      1.00000
     30       8.7969      1.00000
     31       8.9973      1.00001
     32       8.9973      1.00001
     33       9.1261      1.00477
[...]
     38      17.5667      0.00000
     39      17.5667      0.00000
     40      17.5667      0.00000

 k-point    53 :       0.4000    0.4000    0.4000
  band No.  band energies     occupation 
      1     -40.5032      1.00000
      2     -40.5032      1.00000
      3     -40.5032      1.00000
      4     -40.4825      1.00000
      5     -40.2111      1.00000
      6     -40.2111      1.00000
      7     -40.2111      1.00000
      8     -40.1971      1.00000
      9     -40.1971      1.00000
     10     -40.1971      1.00000
     11     -40.1833      1.00000
     12     -40.1833      1.00000
     13       4.3106      1.00000
     14       4.4941      1.00000
     15       4.4941      1.00000
     16       4.4941      1.00000
     17       6.4517      1.00000
     18       6.4517      1.00000
     19       6.4517      1.00000
     20       6.7174      1.00000
     21       6.7174      1.00000
     22       6.8554      1.00000
     23       6.8554      1.00000
     24       6.8554      1.00000
     25       8.2184      1.00000
     26       8.2184      1.00000
     27       8.2184      1.00000
     28       9.0337      1.00006
     29       9.2068      1.03361
     30       9.2068      1.03361
     31       9.4620     -0.03541
     32       9.4620     -0.03541
     33       9.4620     -0.03541
     34      11.5747      0.00000
     35      11.5747      0.00000
     36      11.5747      0.00000
     37      16.8310      0.00000
     38      16.8310      0.00000
     39      16.8310      0.00000
     40      18.4124      0.00000

 k-point    54 :       0.5000    0.4000    0.4000
  band No.  band energies     occupation 
      1     -40.5097      1.00000
      2     -40.5097      1.00000
      3     -40.4997      1.00000
      4     -40.4997      1.00000
      5     -40.2078      1.00000
      6     -40.2078      1.00000
      7     -40.1939      1.00000
      8     -40.1939      1.00000
      9     -40.1904      1.00000
     10     -40.1904      1.00000
     11     -40.1902      1.00000
     12     -40.1902      1.00000
     13       4.3446      1.00000
     14       4.3446      1.00000
     15       4.4352      1.00000
     16       4.4352      1.00000
     17       6.4914      1.00000
     18       6.4914      1.00000
     19       6.6172      1.00000
     20       6.6172      1.00000
     21       6.7332      1.00000
     22       6.7332      1.00000
     23       6.7880      1.00000
     24       6.7880      1.00000
     25       8.4949      1.00000
     26       8.4949      1.00000
     27       8.6997      1.00000
     28       8.6997      1.00000
     29       9.4065      0.05770
     30       9.4065      0.05770
     31       9.4179      0.01876
     32       9.4179      0.01876
     33      10.2928     -0.00000
     34      10.2928     -0.00000
     35      11.5398      0.00000
     36      11.5398      0.00000
     37      16.5686      0.00000
     38      16.5686      0.00000
     39      17.4977      0.00000
     40      17.4977      0.00000

 k-point    55 :       0.5000    0.5000    0.4000
  band No.  band energies     occupation 
      1     -40.5116      1.00000
      2     -40.5116      1.00000
      3     -40.5116      1.00000
      4     -40.5116      1.00000
      5     -40.1957      1.00000
      6     -40.1957      1.00000
      7     -40.1957      1.00000
      8     -40.1957      1.00000
      9     -40.1886      1.00000
     10     -40.1886      1.00000
     11     -40.1886      1.00000
     12     -40.1886      1.00000
     13       4.3258      1.00000
     14       4.3258      1.00000
     15       4.3258      1.00000
     16       4.3258      1.00000
     17       6.6016      1.00000
     18       6.6016      1.00000
     19       6.6016      1.00000
     20       6.6016      1.00000
     21       6.6909      1.00000
     22       6.6909      1.00000
     23       6.6909      1.00000
     24       6.6909      1.00000
     25       8.9549      1.00000
     26       8.9549      1.00000
     27       8.9549      1.00000
     28       8.9549      1.00000
     29       9.3675      0.28555
     30       9.3675      0.28555
     31       9.3675      0.28555
     32       9.3675      0.28555
     33      10.7421     -0.00000
     34      10.7421     -0.00000
     35      10.7421     -0.00000
     36      10.7421     -0.00000
     37      16.8285      0.00000
     38      16.8285      0.00000
     39      16.8285      0.00000
     40      16.8285      0.00000

 k-point    56 :       0.5000    0.5000    0.5000
  band No.  band energies     occupation 
      1     -40.5187      1.00000
      2     -40.5187      1.00000
      3     -40.5187      1.00000
      4     -40.5187      1.00000
      5     -40.1886      1.00000
      6     -40.1886      1.00000
      7     -40.1886      1.00000
      8     -40.1886      1.00000
      9     -40.1886      1.00000
     10     -40.1886      1.00000
     11     -40.1886      1.00000
     12     -40.1886      1.00000
     13       4.2573      1.00000
     14       4.2573      1.00000
     15       4.2573      1.00000
     16       4.2573      1.00000
     17       6.6360      1.00000
     18       6.6360      1.00000
     19       6.6360      1.00000
     20       6.6360      1.00000
     21       6.6360      1.00000
     22       6.6360      1.00000
     23       6.6360      1.00000
     24       6.6360      1.00000
     25       9.4459     -0.02937
     26       9.4459     -0.02937
     27       9.4459     -0.02937
     28       9.4459     -0.02937
     29       9.4459     -0.02937
     30       9.4459     -0.02937
     31       9.4459     -0.02937
     32       9.4459     -0.02937
     33      10.3597     -0.00000
     34      10.3597     -0.00000
     35      10.3597     -0.00000
     36      10.3597     -0.00000
     37      16.5793      0.00000
     38      16.5793      0.00000
     39      16.5793      0.00000
     40      16.5793      0.00000


--------------------------------------------------------------------------------------------------------


 soft charge-density along one line, spin component            1
         0         1         2         3         4         5         6         7         8         9
 total charge-density along one line
 
 soft charge-density along one line, spin component            2
         0         1         2         3         4         5         6         7         8         9
 total charge-density along one line
 
 pseudopotential strength for first ion, spin component:            1
-37.343  -0.000  -0.000   8.304   0.000   0.000  -0.000   0.000
 -0.000 -37.343  -0.000   0.000   8.304   0.000   0.000  -0.000
 -0.000  -0.000 -37.343   0.000   0.000   8.304  -0.000   0.000
  8.304   0.000   0.000   7.860  -0.000  -0.000   0.000  -0.000
  0.000   8.304   0.000  -0.000   7.860  -0.000   0.000   0.000
  0.000   0.000   8.304  -0.000  -0.000   7.860   0.000   0.000
 -0.000   0.000  -0.000   0.000   0.000   0.000  -2.401  -0.000
  0.000  -0.000   0.000  -0.000   0.000   0.000  -0.000  -2.401
  0.000   0.000  -0.000  -0.000  -0.000  -0.000   0.000   0.000
  0.000   0.000   0.000   0.000  -0.000  -0.000  -0.000  -0.000
  0.000   0.000   0.000  -0.000  -0.000  -0.000  -0.000   0.000
 -0.000   0.000  -0.000   0.000  -0.000   0.000  -2.062  -0.000
  0.000  -0.000   0.000  -0.000   0.000  -0.000  -0.000  -2.062
  0.000   0.000  -0.000  -0.000  -0.000   0.000   0.000   0.000
  0.000   0.000   0.000  -0.000  -0.000  -0.000  -0.000  -0.000
  0.000   0.000   0.000  -0.000  -0.000  -0.000  -0.000   0.000
  0.000  -0.000  -0.000   0.000  -0.000   0.000   0.000   0.000
  0.000  -0.000  -0.000   0.000  -0.000   0.000   0.000   0.000
 pseudopotential strength for first ion, spin component:            2
-37.160  -0.000  -0.000   8.208   0.000   0.000  -0.000   0.000
 -0.000 -37.160  -0.000   0.000   8.208   0.000  -0.000  -0.000
 -0.000  -0.000 -37.160   0.000   0.000   8.208  -0.000  -0.000
  8.208   0.000   0.000   7.884  -0.000  -0.000   0.000  -0.000
  0.000   8.208   0.000  -0.000   7.884  -0.000   0.000   0.000
  0.000   0.000   8.208  -0.000  -0.000   7.884   0.000   0.000
 -0.000  -0.000  -0.000   0.000   0.000   0.000  -2.205  -0.000
  0.000  -0.000  -0.000  -0.000   0.000   0.000  -0.000  -2.205
  0.000   0.000   0.000  -0.000  -0.000   0.000   0.000   0.000
 -0.000   0.000   0.000   0.000  -0.000  -0.000  -0.000  -0.000
  0.000   0.000   0.000  -0.000  -0.000  -0.000  -0.000   0.000
 -0.000  -0.000  -0.000   0.000   0.000   0.000  -1.845  -0.000
  0.000  -0.000  -0.000  -0.000   0.000   0.000  -0.000  -1.845
  0.000   0.000   0.000  -0.000  -0.000   0.000   0.000   0.000
 -0.000   0.000   0.000   0.000  -0.000  -0.000  -0.000  -0.000
  0.000   0.000   0.000  -0.000  -0.000  -0.000  -0.000   0.000
  0.000  -0.000  -0.000   0.000  -0.000   0.000   0.000   0.000
  0.000  -0.000  -0.000   0.000  -0.000   0.000   0.000   0.000
 total augmentation occupancy for first ion, spin component:            1
  1.998   0.000   0.000  -0.014  -0.000  -0.000  -0.000   0.000   0.000   0.000  -0.000   0.000   0.000   0.000  -0.000   0.000
  0.000   1.998   0.000  -0.000  -0.014  -0.000   0.000  -0.000  -0.000  -0.000   0.000   0.000   0.000   0.000   0.000   0.000
  0.000   0.000   1.998  -0.000  -0.000  -0.014  -0.000   0.000  -0.000  -0.000  -0.000   0.000  -0.000  -0.000  -0.000   0.000
 -0.014  -0.000  -0.000   0.105   0.000   0.000  -0.000   0.000  -0.000   0.000  -0.000   0.000  -0.000   0.000  -0.000   0.000
 -0.000  -0.014  -0.000   0.000   0.105   0.000   0.000  -0.000  -0.000  -0.000   0.000  -0.000  -0.000  -0.000  -0.000   0.000
 -0.000  -0.000  -0.014   0.000   0.000   0.105  -0.000  -0.000   0.000   0.000   0.000   0.000  -0.000   0.000  -0.000   0.000
 -0.000   0.000  -0.000  -0.000   0.000  -0.000   2.752   0.000  -0.000   0.000   0.000  -0.737  -0.000   0.000  -0.000  -0.000
  0.000  -0.000   0.000   0.000  -0.000  -0.000   0.000   2.752   0.000   0.000  -0.000  -0.000  -0.737  -0.000  -0.000   0.000
 -0.000   0.000  -0.000  -0.000   0.000   0.000  -0.000   0.000   2.524   0.000   0.000   0.000  -0.000  -0.544  -0.000  -0.000
  0.000  -0.000  -0.000   0.000  -0.000   0.000   0.000   0.000   0.000   2.752   0.000  -0.000  -0.000  -0.000  -0.737  -0.000
  0.000   0.000  -0.000  -0.000  -0.000   0.000   0.000  -0.000   0.000   0.000   2.524  -0.000   0.000  -0.000  -0.000  -0.544
  0.000   0.000   0.000  -0.000  -0.000   0.000  -0.737  -0.000   0.000  -0.000  -0.000   0.477   0.000  -0.000   0.000   0.000
  0.000   0.000  -0.000  -0.000  -0.000  -0.000  -0.000  -0.737  -0.000  -0.000   0.000   0.000   0.477   0.000   0.000  -0.000
  0.000   0.000   0.000   0.000   0.000   0.000   0.000  -0.000  -0.544  -0.000  -0.000  -0.000   0.000   0.425   0.000   0.000
 -0.000   0.000  -0.000  -0.000  -0.000  -0.000  -0.000  -0.000  -0.000  -0.737  -0.000   0.000   0.000   0.000   0.477   0.000
  0.000   0.000  -0.000   0.000   0.000   0.000  -0.000   0.000  -0.000  -0.000  -0.544   0.000  -0.000   0.000   0.000   0.425
 -0.000  -0.000   0.000  -0.000   0.000  -0.000  -0.000  -0.000   0.000   0.000   0.000   0.000  -0.000  -0.000  -0.000  -0.000
  0.000   0.000  -0.000   0.000  -0.000  -0.000   0.000   0.000   0.000   0.000   0.000   0.000  -0.000  -0.000   0.000  -0.000
 total augmentation occupancy for first ion, spin component:            2
  0.000   0.000   0.000  -0.000   0.000  -0.000  -0.000   0.000  -0.000   0.000  -0.000  -0.000  -0.000   0.000  -0.000  -0.000
  0.000   0.000   0.000  -0.000  -0.000  -0.000   0.000   0.000   0.000   0.000   0.000   0.000   0.000  -0.000   0.000   0.000
  0.000   0.000   0.000  -0.000  -0.000  -0.000  -0.000   0.000  -0.000   0.000   0.000  -0.000   0.000  -0.000  -0.000   0.000
 -0.000   0.000  -0.000  -0.002  -0.000  -0.000  -0.000  -0.000   0.000   0.000   0.000   0.000   0.000  -0.000   0.000  -0.000
 -0.000  -0.000  -0.000  -0.000  -0.002  -0.000   0.000  -0.000  -0.000  -0.000  -0.000   0.000  -0.000   0.000   0.000   0.000
 -0.000  -0.000  -0.000  -0.000  -0.000  -0.002  -0.000  -0.000  -0.000  -0.000   0.000  -0.000  -0.000  -0.000   0.000  -0.000
 -0.000   0.000  -0.000  -0.000   0.000  -0.000  -0.059  -0.000   0.000  -0.000  -0.000   0.063   0.000  -0.000   0.000   0.000
  0.000   0.000   0.000  -0.000  -0.000  -0.000  -0.000  -0.059  -0.000  -0.000   0.000   0.000   0.063   0.000   0.000  -0.000
 -0.000   0.000   0.000   0.000  -0.000  -0.000   0.000  -0.000  -0.045  -0.000  -0.000  -0.000   0.000   0.039   0.000   0.000
  0.000   0.000   0.000   0.000  -0.000  -0.000  -0.000  -0.000  -0.000  -0.059  -0.000   0.000   0.000   0.000   0.063   0.000
  0.000   0.000   0.000  -0.000   0.000   0.000  -0.000   0.000  -0.000  -0.000  -0.045   0.000  -0.000   0.000   0.000   0.039
 -0.000   0.000  -0.000   0.000   0.000   0.000   0.063   0.000  -0.000   0.000   0.000   0.040   0.000  -0.000  -0.000   0.000
 -0.000   0.000   0.000   0.000  -0.000  -0.000   0.000   0.063   0.000   0.000  -0.000   0.000   0.040   0.000   0.000  -0.000
  0.000  -0.000   0.000   0.000  -0.000  -0.000  -0.000   0.000   0.039   0.000   0.000  -0.000   0.000   0.014   0.000   0.000
 -0.000   0.000  -0.000   0.000   0.000   0.000   0.000   0.000   0.000   0.063   0.000   0.000   0.000   0.000   0.040  -0.000
  0.000  -0.000  -0.000   0.000   0.000  -0.000   0.000  -0.000   0.000   0.000   0.039   0.000  -0.000   0.000   0.000   0.014
 -0.000   0.000   0.000   0.000  -0.000  -0.000  -0.000  -0.000  -0.000   0.000  -0.000  -0.000   0.000   0.000   0.000   0.000
  0.000   0.000  -0.000  -0.000   0.000   0.000  -0.000  -0.000  -0.000  -0.000   0.000   0.000   0.000  -0.000  -0.000  -0.000


------------------------ aborting loop because EDIFF is reached ----------------------------------------





 total charge

# of ion       s       p       d       tot
------------------------------------------
    1        0.316   6.174   7.974  14.464
    2        0.316   6.174   7.974  14.464
    3        0.316   6.174   7.974  14.464
    4        0.316   6.174   7.974  14.464
--------------------------------------------------
tot          1.265  24.695  31.896  57.856



 magnetization (x)

# of ion       s       p       d       tot
------------------------------------------
    1       -0.001  -0.003   0.405   0.401
    2       -0.001  -0.003   0.405   0.401
    3       -0.001  -0.003   0.405   0.401
    4       -0.001  -0.003   0.405   0.401
--------------------------------------------------
tot         -0.004  -0.013   1.621   1.603
 
    CHARGE:  cpu time      0.3751: real time      0.3751
    FORLOC:  cpu time      0.0008: real time      0.0008
    FORNL :  cpu time      0.7048: real time      0.7049
    FORCOR:  cpu time      0.4517: real time      0.4517
    FORHAR:  cpu time      0.0042: real time      0.0043
    MIXING:  cpu time      0.0013: real time      0.0013
    OFIELD:  cpu time      0.0000: real time      0.0000

 ---------------------------------------------------------------------------------------------

         DFTD3 V3.0 Rev 1        
 DF pbe       
 parameters
 k1-k3        =   16.0000    1.3333   -4.0000
 Edisp (eV)   -2.62093

 E6    (eV) :    -1.4629
 E8    (eV) :    -1.1581
 % E8        : 44.19
    FORVDW:  cpu time      0.0073: real time      0.0073

 VOLUME and BASIS-vectors are now :
 -----------------------------------------------------------------------------
  energy-cutoff  :      520.00
  volume of cell :       60.11
      direct lattice vectors                 reciprocal lattice vectors
     3.917301575  0.000000000  0.000000000     0.255277767 -0.000000000  0.000000000
     0.000000000  3.917301575  0.000000000     0.000000000  0.255277767  0.000000000
     0.000000000  0.000000000  3.917301575    -0.000000000 -0.000000000  0.255277767

  length of vectors
     3.917301575  3.917301575  3.917301575     0.255277767  0.255277767  0.255277767


 FORCES acting on ions
    electron-ion (+dipol)            ewald-force                    non-local-force                 convergence-correction
 -----------------------------------------------------------------------------------------------
   0.268E-13 -.142E-15 -.112E-12   -.366E-13 -.348E-13 0.417E-14   -.848E-26 0.620E-24 0.103E-24   -.875E-14 -.414E-13 -.795E-13
   0.226E-13 0.496E-12 0.392E-12   -.388E-13 0.552E-14 0.106E-13   0.173E-24 0.207E-24 0.905E-25   -.149E-13 -.132E-14 0.464E-13
   0.491E-12 -.128E-14 -.157E-11   0.424E-13 -.761E-14 0.104E-13   -.117E-25 0.207E-24 -.258E-24   -.361E-13 -.152E-13 0.450E-13
   0.495E-12 0.662E-11 -.466E-11   0.402E-13 0.327E-13 -.238E-13   -.364E-24 0.200E-24 0.827E-24   -.258E-13 -.169E-13 -.112E-12
 -----------------------------------------------------------------------------------------------
   0.104E-11 0.711E-11 -.595E-11   0.725E-14 -.417E-14 0.136E-14   -.211E-24 0.123E-23 0.763E-24   -.857E-13 -.749E-13 -.996E-13
 
 
 POSITION                                       TOTAL-FORCE (eV/Angst)
 -----------------------------------------------------------------------------------
      0.00000      0.00000      0.00000        -0.000000     -0.000000      0.000000
      0.00000      1.95865      1.95865         0.000000     -0.000000      0.000000
      1.95865      0.00000      1.95865        -0.000000     -0.000000     -0.000000
      1.95865      1.95865      0.00000         0.000000      0.000000      0.000000
 -----------------------------------------------------------------------------------
    total drift:                                0.000000      0.000000     -0.000000


--------------------------------------------------------------------------------------------------------



  FREE ENERGIE OF THE ION-ELECTRON SYSTEM (eV)
  ---------------------------------------------------
  free  energy   TOTEN  =       -23.43969479 eV

  energy  without entropy=      -23.43249398  energy(sigma->0) =      -23.43729452
 


--------------------------------------------------------------------------------------------------------


    POTLOK:  cpu time      0.4548: real time      0.4548


--------------------------------------------------------------------------------------------------------


     LOOP+:  cpu time     58.0887: real time     59.5662
    4ORBIT:  cpu time      0.0000: real time      0.0000



 total charge

# of ion       s       p       d       tot
------------------------------------------
    1        0.316   6.174   7.974  14.464
    2        0.316   6.174   7.974  14.464
    3        0.316   6.174   7.974  14.464
    4        0.316   6.174   7.974  14.464
--------------------------------------------------
tot          1.265  24.695  31.896  57.856



 magnetization (x)

# of ion       s       p       d       tot
------------------------------------------
    1       -0.001  -0.003   0.405   0.401
    2       -0.001  -0.003   0.405   0.401
    3       -0.001  -0.003   0.405   0.401
    4       -0.001  -0.003   0.405   0.401
--------------------------------------------------
tot         -0.004  -0.013   1.621   1.603
 

 total amount of memory used by VASP MPI-rank0    88635. kBytes
=======================================================================

   base      :      30000. kBytes
   nonl-proj :      13394. kBytes
   fftplans  :       8118. kBytes
   grid      :       6177. kBytes
   one-center:        124. kBytes
   wavefun   :      30822. kBytes
 
  
  
 General timing and accounting informations for this job:
 ========================================================
  
                  Total CPU time used (sec):       60.856
                            User time (sec):       59.045
                          System time (sec):        1.811
                         Elapsed time (sec):       63.043
  
                   Maximum memory used (kb):      384304.
                   Average memory used (kb):          N/A
  
                          Minor page faults:       334960
                          Major page faults:            1
                 Voluntary context switches:          269
