       N       E                     dE             d eps       ncg     rms          rms(c)
DAV:   1     0.691786249197E+03    0.69179E+03   -0.34696E+04 14360   0.163E+03
DAV:   2     0.312473254986E+01   -0.68866E+03   -0.66184E+03 14384   0.510E+02
DAV:   3    -0.214279571975E+02   -0.24553E+02   -0.24083E+02 15032   0.103E+02
DAV:   4    -0.216870368076E+02   -0.25908E+00   -0.25904E+00 14352   0.113E+01
DAV:   5    -0.216912669922E+02   -0.42302E-02   -0.42301E-02 14936   0.142E+00    0.108E+01
DAV:   6    -0.208232661349E+02    0.86800E+00   -0.37456E+00 14312   0.136E+01    0.230E+00
DAV:   7    -0.208219081971E+02    0.13579E-02   -0.38639E-02 14432   0.140E+00    0.152E+00
DAV:   8    -0.208201687735E+02    0.17394E-02   -0.46194E-03 14720   0.544E-01    0.838E-01
DAV:   9    -0.208206584937E+02   -0.48972E-03   -0.25374E-03 14288   0.419E-01    0.886E-02
DAV:  10    -0.208209212300E+02   -0.26274E-03   -0.29409E-04 15128   0.127E-01    0.854E-02
DAV:  11    -0.208209810818E+02   -0.59852E-04   -0.29144E-05 14536   0.344E-02    0.683E-02
DAV:  12    -0.208210462786E+02   -0.65197E-04   -0.15225E-04 14160   0.688E-02    0.103E-02
DAV:  13    -0.208210565641E+02   -0.10286E-04   -0.48183E-06 12464   0.168E-02    0.612E-03
DAV:  14    -0.208210584336E+02   -0.18695E-05   -0.72115E-07  7464   0.638E-03    0.270E-03
DAV:  15    -0.208210600215E+02   -0.15879E-05   -0.28990E-07  7344   0.354E-03    0.125E-03
DAV:  16    -0.208210601878E+02   -0.16636E-06   -0.46839E-08  7248   0.160E-03
   1 F= -.23441985E+02 E0= -.23441943E+02  d E =-.127553E-03  mag=     0.9565
