 vasp.6.4.3 19Mar24 (build Nov 27 2025 15:18:09) complex                         
 executed on              LinuxNV date 2026.06.04  16:31:42
 running    4 mpi-ranks, with    1 threads/rank, on    1 nodes
 distrk:  each k-point on    4 cores,    1 groups
 distr:  one band on NCORE=   1 cores,    4 groups
 OpenACC runtime initialized ...    0 GPUs detected


--------------------------------------------------------------------------------------------------------


 INCAR:
   SYSTEM = pddmc
   ENCUT = 400
   PREC = Accurate
   LASPH = .TRUE.
   ADDGRID = .TRUE.
   ISPIN = 2
   IVDW = 12
   EDIFF = 1e-06
   NELM = 200
   NELMIN = 5
   ALGO = Normal
   NCORE = 1
   LREAL = .FALSE.
   LWAVE = .FALSE.
   LCHARG = .FALSE.
   LORBIT = 11
   ISYM = 2
   IBRION = -1
   NSW = 0
   ISIF = 0
   ISMEAR = 1
   SIGMA = 0.1
   EDIFFG = -0.01

 POTCAR:    PAW_PBE Pd_pv 28Jan2005               
 -----------------------------------------------------------------------------
|                                                                             |
|           W    W    AA    RRRRR   N    N  II  N    N   GGGG   !!!           |
|           W    W   A  A   R    R  NN   N  II  NN   N  G    G  !!!           |
|           W    W  A    A  R    R  N N  N  II  N N  N  G       !!!           |
|           W WW W  AAAAAA  RRRRR   N  N N  II  N  N N  G  GGG   !            |
|           WW  WW  A    A  R   R   N   NN  II  N   NN  G    G                |
|           W    W  A    A  R    R  N    N  II  N    N   GGGG   !!!           |
|                                                                             |
|     You use a magnetic or noncollinear calculation, but did not specify     |
|     the initial magnetic moment with the MAGMOM tag. Note that a            |
|     default of 1 will be used for all atoms. This ferromagnetic setup       |
|     may break the symmetry of the crystal, in particular it may rule        |
|     out finding an antiferromagnetic solution. Thence, we recommend         |
|     setting the initial magnetic moment manually or verifying carefully     |
|     that this magnetic setup is desired.                                    |
|                                                                             |
 -----------------------------------------------------------------------------

 POTCAR:    PAW_PBE Pd_pv 28Jan2005               
   SHA256 =  3ce661545bbde58da9a95410dea32907db2844916708bcd35bbe03ee66324d7f Pd_pv/POTCAR          
   COPYR  = (c) Copyright 28Jan2005 Georg Kresse                                                    
   COPYR  = This file is part of the software VASP. Any use, copying, and all other rights are regul
   COPYR  = If you do not have a valid VASP license, you may not use, copy or distribute this file. 
   VRHFIN =Pd: 4p5s4d                                                                               
   LEXCH  = PE                                                                                      
   EATOM  =  2621.5550 eV,  192.6789 Ry                                                             
                                                                                                    
   TITEL  = PAW_PBE Pd_pv 28Jan2005                                                                 
   LULTRA =        F    use ultrasoft PP ?                                                          
   IUNSCR =        1    unscreen: 0-lin 1-nonlin 2-no                                               
   RPACOR =    2.250    partial core radius                                                         
   POMASS =  106.420; ZVAL   =   16.000    mass and valenz                                          
   RCORE  =    2.400    outmost cutoff radius                                                       
   RWIGS  =    2.300; RWIGS  =    1.217    wigner-seitz radius (au A)                               
   ENMAX  =  250.925; ENMIN  =  188.194 eV                                                          
   ICORE  =        3    local potential                                                             
   LCOR   =        T    correct aug charges                                                         
   LPAW   =        T    paw PP                                                                      
   EAUG   =  473.067                                                                                
   DEXC   =    0.000                                                                                
   RMAX   =    2.449    core radius for proj-oper                                                   
   RAUG   =    1.300    factor for augmentation sphere                                              
   RDEP   =    2.405    radius for radial grids                                                     
   RDEPT  =    1.966    core radius for aug-charge                                                  
                                                                                                    
   Atomic configuration                                                                             
   11 entries                                                                                       
     n  l   j            E        occ.                                                              
     1  0  0.50    -24164.6632   2.0000                                                             
     2  0  0.50     -3530.9218   2.0000                                                             
     2  1  1.50     -3165.6822   6.0000                                                             
     3  0  0.50      -639.4578   2.0000                                                             
     3  1  1.50      -519.4532   6.0000                                                             
     3  2  2.50      -328.9758  10.0000                                                             
     4  0  0.50       -88.7014   2.0000                                                             
     4  1  1.50       -54.4541   6.0000                                                             
     4  2  2.50        -6.6878   9.0000                                                             
     5  0  0.50        -4.3543   1.0000                                                             
     4  3  2.50        -1.3606   0.0000                                                             
   Description                                                                                      
     l       E           TYP  RCUT    TYP  RCUT                                                     
     1    -54.4540524     23  2.100                                                                 
     1      4.0817478     23  2.100                                                                 
     2     -6.6878326     23  2.400                                                                 
     2     -4.0817478     23  2.400                                                                 
     0     -4.3542962     23  2.400                                                                 
     0     13.6058260     23  2.400                                                                 
     3     -5.4423304     23  2.400                                                                 
  local pseudopotential read in
  partial core-charges read in
  partial kinetic energy density read in
  atomic valenz-charges read in
  non local Contribution for L=            1  read in
    real space projection operators read in
  non local Contribution for L=            1  read in
    real space projection operators read in
  non local Contribution for L=            2  read in
    real space projection operators read in
  non local Contribution for L=            2  read in
    real space projection operators read in
  non local Contribution for L=            0  read in
    real space projection operators read in
  non local Contribution for L=            0  read in
    real space projection operators read in
    PAW grid and wavefunctions read in
 
   number of l-projection  operators is LMAX  =            6
   number of lm-projection operators is LMMAX =           18
 
  PAW_PBE Pd_pv 28Jan2005               :
 energy of atom  1       EATOM=-2621.5550
 kinetic energy error for atom=    0.0211 (will be added to EATOM!!)
 
 
 POSCAR: Pd
  positions in cartesian coordinates
  No initial velocities read in
 IVDW         = 12
 VDW_S6       =    1.0000
 VDW_S8       =    0.7875
 VDW_A1       =    0.4289
 VDW_A2       =    4.4407
 VDW_RADIUS   =   50.2022 A
 VDW_CNRADIUS =   21.1671 A


 exchange-correlation table for PE
   RHO(1)=    0.500       N(1)  =     2000
   RHO(2)=  100.500       N(2)  =     4000
 


--------------------------------------------------------------------------------------------------------


 ion  position               nearest neighbor table
   1  0.000  0.000  0.000-   2 2.77   3 2.77   2 2.77   3 2.77   2 2.77   4 2.77   2 2.77   3 2.77
                             4 2.77   3 2.77   4 2.77   4 2.77
   2  0.000  0.500  0.500-   1 2.77   4 2.77   1 2.77   4 2.77   1 2.77   3 2.77   1 2.77   3 2.77
                             4 2.77   4 2.77   3 2.77   3 2.77
   3  0.500  0.000  0.500-   1 2.77   4 2.77   1 2.77   4 2.77   2 2.77   4 2.77   4 2.77   1 2.77
                             2 2.77   1 2.77   2 2.77   2 2.77
   4  0.500  0.500  0.000-   2 2.77   3 2.77   2 2.77   3 2.77   1 2.77   3 2.77   3 2.77   1 2.77
                             2 2.77   2 2.77   1 2.77   1 2.77
 
  LATTYP: Found a simple cubic cell.
 ALAT       =     3.9173015750
  
  Lattice vectors:
  
 A1 = (   3.9173015750,   0.0000000000,   0.0000000000)
 A2 = (   0.0000000000,   3.9173015750,   0.0000000000)
 A3 = (   0.0000000000,   0.0000000000,   3.9173015750)


Analysis of symmetry for initial positions (statically):
=====================================================================
 Subroutine PRICEL returns following result:
 
  LATTYP: Found a face centered cubic cell.
 ALAT       =     3.9173015750
  
  Lattice vectors:
  
 A1 = (   1.9586507875,  -1.9586507875,   0.0000000000)
 A2 = (   1.9586507875,   0.0000000000,   1.9586507875)
 A3 = (   0.0000000000,  -1.9586507875,   1.9586507875)
 
   4 primitive cells build up your supercell.
 

 Routine SETGRP: Setting up the symmetry group for a 
 simple cubic supercell.


 Subroutine GETGRP returns: Found 48 space group operations
 (whereof 48 operations were pure point group operations)
 out of a pool of 48 trial point group operations.


The static configuration has the point symmetry O_h .


Analysis of symmetry for dynamics (positions and initial velocities):
=====================================================================
 Subroutine PRICEL returns following result:
 
  LATTYP: Found a face centered cubic cell.
 ALAT       =     3.9173015750
  
  Lattice vectors:
  
 A1 = (   1.9586507875,  -1.9586507875,   0.0000000000)
 A2 = (   1.9586507875,   0.0000000000,   1.9586507875)
 A3 = (   0.0000000000,  -1.9586507875,   1.9586507875)
 
   4 primitive cells build up your supercell.
 

 Routine SETGRP: Setting up the symmetry group for a 
 simple cubic supercell.


 Subroutine GETGRP returns: Found 48 space group operations
 (whereof 48 operations were pure point group operations)
 out of a pool of 48 trial point group operations.


The dynamic configuration has the point symmetry O_h .


Analysis of structural, dynamic, and magnetic symmetry:
=====================================================================
 Subroutine PRICEL returns following result:
 
  LATTYP: Found a face centered cubic cell.
 ALAT       =     3.9173015750
  
  Lattice vectors:
  
 A1 = (   1.9586507875,  -1.9586507875,   0.0000000000)
 A2 = (   1.9586507875,   0.0000000000,   1.9586507875)
 A3 = (   0.0000000000,  -1.9586507875,   1.9586507875)
 
   4 primitive cells build up your supercell.
 

 Routine SETGRP: Setting up the symmetry group for a 
 simple cubic supercell.


 Subroutine GETGRP returns: Found 48 space group operations
 (whereof 48 operations were pure point group operations)
 out of a pool of 48 trial point group operations.


The overall configuration has the point symmetry O_h .


 Subroutine INISYM returns: Found 48 space group operations
 (whereof 48 operations are pure point group operations),
 and found     4 'primitive' translations


----------------------------------------------------------------------------------------

                                     Primitive cell                                     

  volume of cell :      15.0280

  direct lattice vectors                    reciprocal lattice vectors
     1.958650787 -1.958650787  0.000000000     0.255277767 -0.255277767 -0.255277767
     1.958650787  0.000000000  1.958650787     0.255277767  0.255277767  0.255277767
     0.000000000 -1.958650787  1.958650787    -0.255277767 -0.255277767  0.255277767

  length of vectors
     2.769950508  2.769950508  2.769950508     0.442154063  0.442154063  0.442154063

  position of ions in fractional coordinates (direct lattice)
     0.000000000  0.000000000  0.000000000

  ion indices of the primitive-cell ions
   primitive index   ion index
                 1           1

----------------------------------------------------------------------------------------

 
 
 KPOINTS: Automatic mesh                          

Automatic generation of k-mesh.
 Grid dimensions read from file:
 generate k-points for:   12   12   12

 Generating k-lattice:

  Cartesian coordinates                     Fractional coordinates (reciprocal lattice)
     0.021273147 -0.000000000  0.000000000     0.083333333 -0.000000000  0.000000000
     0.000000000  0.021273147  0.000000000     0.000000000  0.083333333  0.000000000
    -0.000000000 -0.000000000  0.021273147     0.000000000  0.000000000  0.083333333

  Length of vectors
     0.021273147  0.021273147  0.021273147

  Shift w.r.t. Gamma in fractional coordinates (k-lattice)
     0.000000000  0.000000000  0.000000000

 
 Subroutine IBZKPT returns following result:
 ===========================================
 
 Found     84 irreducible k-points:
 
 Following reciprocal coordinates:
            Coordinates               Weight
  0.000000  0.000000  0.000000      1.000000
  0.083333  0.000000  0.000000      6.000000
  0.166667  0.000000  0.000000      6.000000
  0.250000  0.000000  0.000000      6.000000
  0.333333  0.000000  0.000000      6.000000
  0.416667  0.000000  0.000000      6.000000
  0.500000  0.000000  0.000000      3.000000
  0.083333  0.083333  0.000000     12.000000
  0.166667  0.083333  0.000000     24.000000
  0.250000  0.083333  0.000000     24.000000
  0.333333  0.083333  0.000000     24.000000
  0.416667  0.083333  0.000000     24.000000
  0.500000  0.083333  0.000000     12.000000
  0.166667  0.166667  0.000000     12.000000
  0.250000  0.166667  0.000000     24.000000
  0.333333  0.166667  0.000000     24.000000
  0.416667  0.166667  0.000000     24.000000
  0.500000  0.166667  0.000000     12.000000
  0.250000  0.250000  0.000000     12.000000
  0.333333  0.250000  0.000000     24.000000
  0.416667  0.250000  0.000000     24.000000
  0.500000  0.250000  0.000000     12.000000
  0.333333  0.333333  0.000000     12.000000
  0.416667  0.333333  0.000000     24.000000
  0.500000  0.333333  0.000000     12.000000
  0.416667  0.416667  0.000000     12.000000
  0.500000  0.416667  0.000000     12.000000
  0.500000  0.500000  0.000000      3.000000
  0.083333  0.083333  0.083333      8.000000
  0.166667  0.083333  0.083333     24.000000
  0.250000  0.083333  0.083333     24.000000
  0.333333  0.083333  0.083333     24.000000
  0.416667  0.083333  0.083333     24.000000
  0.500000  0.083333  0.083333     12.000000
  0.166667  0.166667  0.083333     24.000000
  0.250000  0.166667  0.083333     48.000000
  0.333333  0.166667  0.083333     48.000000
  0.416667  0.166667  0.083333     48.000000
  0.500000  0.166667  0.083333     24.000000
  0.250000  0.250000  0.083333     24.000000
  0.333333  0.250000  0.083333     48.000000
  0.416667  0.250000  0.083333     48.000000
  0.500000  0.250000  0.083333     24.000000
  0.333333  0.333333  0.083333     24.000000
  0.416667  0.333333  0.083333     48.000000
  0.500000  0.333333  0.083333     24.000000
  0.416667  0.416667  0.083333     24.000000
  0.500000  0.416667  0.083333     24.000000
  0.500000  0.500000  0.083333      6.000000
  0.166667  0.166667  0.166667      8.000000
  0.250000  0.166667  0.166667     24.000000
  0.333333  0.166667  0.166667     24.000000
  0.416667  0.166667  0.166667     24.000000
  0.500000  0.166667  0.166667     12.000000
  0.250000  0.250000  0.166667     24.000000
  0.333333  0.250000  0.166667     48.000000
  0.416667  0.250000  0.166667     48.000000
  0.500000  0.250000  0.166667     24.000000
  0.333333  0.333333  0.166667     24.000000
  0.416667  0.333333  0.166667     48.000000
  0.500000  0.333333  0.166667     24.000000
  0.416667  0.416667  0.166667     24.000000
  0.500000  0.416667  0.166667     24.000000
  0.500000  0.500000  0.166667      6.000000
  0.250000  0.250000  0.250000      8.000000
  0.333333  0.250000  0.250000     24.000000
  0.416667  0.250000  0.250000     24.000000
  0.500000  0.250000  0.250000     12.000000
  0.333333  0.333333  0.250000     24.000000
  0.416667  0.333333  0.250000     48.000000
  0.500000  0.333333  0.250000     24.000000
  0.416667  0.416667  0.250000     24.000000
  0.500000  0.416667  0.250000     24.000000
  0.500000  0.500000  0.250000      6.000000
  0.333333  0.333333  0.333333      8.000000
  0.416667  0.333333  0.333333     24.000000
  0.500000  0.333333  0.333333     12.000000
  0.416667  0.416667  0.333333     24.000000
  0.500000  0.416667  0.333333     24.000000
  0.500000  0.500000  0.333333      6.000000
  0.416667  0.416667  0.416667      8.000000
  0.500000  0.416667  0.416667     12.000000
  0.500000  0.500000  0.416667      6.000000
  0.500000  0.500000  0.500000      1.000000
 
 Following cartesian coordinates:
            Coordinates               Weight
  0.000000  0.000000  0.000000      1.000000
  0.021273  0.000000  0.000000      6.000000
  0.042546  0.000000  0.000000      6.000000
  0.063819  0.000000  0.000000      6.000000
  0.085093  0.000000  0.000000      6.000000
  0.106366  0.000000  0.000000      6.000000
  0.127639  0.000000  0.000000      3.000000
  0.021273  0.021273  0.000000     12.000000
  0.042546  0.021273  0.000000     24.000000
  0.063819  0.021273  0.000000     24.000000
  0.085093  0.021273  0.000000     24.000000
  0.106366  0.021273  0.000000     24.000000
  0.127639  0.021273  0.000000     12.000000
  0.042546  0.042546  0.000000     12.000000
  0.063819  0.042546  0.000000     24.000000
  0.085093  0.042546  0.000000     24.000000
  0.106366  0.042546  0.000000     24.000000
  0.127639  0.042546  0.000000     12.000000
  0.063819  0.063819  0.000000     12.000000
  0.085093  0.063819  0.000000     24.000000
  0.106366  0.063819  0.000000     24.000000
  0.127639  0.063819  0.000000     12.000000
  0.085093  0.085093  0.000000     12.000000
  0.106366  0.085093  0.000000     24.000000
  0.127639  0.085093  0.000000     12.000000
  0.106366  0.106366  0.000000     12.000000
  0.127639  0.106366  0.000000     12.000000
  0.127639  0.127639  0.000000      3.000000
  0.021273  0.021273  0.021273      8.000000
  0.042546  0.021273  0.021273     24.000000
  0.063819  0.021273  0.021273     24.000000
  0.085093  0.021273  0.021273     24.000000
  0.106366  0.021273  0.021273     24.000000
  0.127639  0.021273  0.021273     12.000000
  0.042546  0.042546  0.021273     24.000000
  0.063819  0.042546  0.021273     48.000000
  0.085093  0.042546  0.021273     48.000000
  0.106366  0.042546  0.021273     48.000000
  0.127639  0.042546  0.021273     24.000000
  0.063819  0.063819  0.021273     24.000000
  0.085093  0.063819  0.021273     48.000000
  0.106366  0.063819  0.021273     48.000000
  0.127639  0.063819  0.021273     24.000000
  0.085093  0.085093  0.021273     24.000000
  0.106366  0.085093  0.021273     48.000000
  0.127639  0.085093  0.021273     24.000000
  0.106366  0.106366  0.021273     24.000000
  0.127639  0.106366  0.021273     24.000000
  0.127639  0.127639  0.021273      6.000000
  0.042546  0.042546  0.042546      8.000000
  0.063819  0.042546  0.042546     24.000000
  0.085093  0.042546  0.042546     24.000000
  0.106366  0.042546  0.042546     24.000000
  0.127639  0.042546  0.042546     12.000000
  0.063819  0.063819  0.042546     24.000000
  0.085093  0.063819  0.042546     48.000000
  0.106366  0.063819  0.042546     48.000000
  0.127639  0.063819  0.042546     24.000000
  0.085093  0.085093  0.042546     24.000000
  0.106366  0.085093  0.042546     48.000000
  0.127639  0.085093  0.042546     24.000000
  0.106366  0.106366  0.042546     24.000000
  0.127639  0.106366  0.042546     24.000000
  0.127639  0.127639  0.042546      6.000000
  0.063819  0.063819  0.063819      8.000000
  0.085093  0.063819  0.063819     24.000000
  0.106366  0.063819  0.063819     24.000000
  0.127639  0.063819  0.063819     12.000000
  0.085093  0.085093  0.063819     24.000000
  0.106366  0.085093  0.063819     48.000000
  0.127639  0.085093  0.063819     24.000000
  0.106366  0.106366  0.063819     24.000000
  0.127639  0.106366  0.063819     24.000000
  0.127639  0.127639  0.063819      6.000000
  0.085093  0.085093  0.085093      8.000000
  0.106366  0.085093  0.085093     24.000000
  0.127639  0.085093  0.085093     12.000000
  0.106366  0.106366  0.085093     24.000000
  0.127639  0.106366  0.085093     24.000000
  0.127639  0.127639  0.085093      6.000000
  0.106366  0.106366  0.106366      8.000000
  0.127639  0.106366  0.106366     12.000000
  0.127639  0.127639  0.106366      6.000000
  0.127639  0.127639  0.127639      1.000000
 


--------------------------------------------------------------------------------------------------------




 Dimension of arrays:
   k-points           NKPTS =     84   k-points in BZ     NKDIM =     84   number of bands    NBANDS=     40
   number of dos      NEDOS =    301   number of ions     NIONS =      4
   non local maximal  LDIM  =      6   non local SUM 2l+1 LMDIM =     18
   total plane-waves  NPLWV =  21952
   max r-space proj   IRMAX =      1   max aug-charges    IRDMAX= 117146
   dimension x,y,z NGX =    28 NGY =   28 NGZ =   28
   dimension x,y,z NGXF=    56 NGYF=   56 NGZF=   56
   support grid    NGXF=   112 NGYF=  112 NGZF=  112
   ions per type =               4
   NGX,Y,Z   is equivalent  to a cutoff of  11.88, 11.88, 11.88 a.u.
   NGXF,Y,Z  is equivalent  to a cutoff of  23.77, 23.77, 23.77 a.u.

 SYSTEM =  pddmc                                   
 POSCAR =  Pd                                      

 Startparameter for this run:
   NWRITE =      2    write-flag & timer
   PREC   = accura    normal or accurate (medium, high low for compatibility)
   ISTART =      0    job   : 0-new  1-cont  2-samecut
   ICHARG =      2    charge: 1-file 2-atom 10-const
   ISPIN  =      2    spin polarized calculation?
   LNONCOLLINEAR =      F non collinear calculations
   LSORBIT =      F    spin-orbit coupling
   INIWAV =      1    electr: 0-lowe 1-rand  2-diag
   LASPH  =      T    aspherical Exc in radial PAW
 Electronic Relaxation 1
   ENCUT  =  400.0 eV  29.40 Ry    5.42 a.u.   6.39  6.39  6.39*2*pi/ulx,y,z
   ENINI  =  400.0     initial cutoff
   ENAUG  =  473.1 eV  augmentation charge cutoff
   NELM   =    200;   NELMIN=  5; NELMDL= -5     # of ELM steps 
   EDIFF  = 0.1E-05   stopping-criterion for ELM
   LREAL  =      F    real-space projection
   NLSPLINE    = F    spline interpolate recip. space projectors
   LCOMPAT=      F    compatible to vasp.4.4
   GGA_COMPAT  = T    GGA compatible to vasp.4.4-vasp.4.6
   LMAXPAW     = -100 max onsite density
   LMAXMIX     =    2 max onsite mixed and CHGCAR
   VOSKOWN=      0    Vosko Wilk Nusair interpolation
   ROPT   =    0.00000
 Ionic relaxation
   EDIFFG = -.1E-01   stopping-criterion for IOM
   NSW    =      0    number of steps for IOM
   NBLOCK =      1;   KBLOCK =      1    inner block; outer block 
   IBRION =     -1    ionic relax: 0-MD 1-quasi-New 2-CG
   NFREE  =      0    steps in history (QN), initial steepest desc. (CG)
   ISIF   =      0    stress and relaxation
   IWAVPR =     10    prediction:  0-non 1-charg 2-wave 3-comb
   ISYM   =      2    0-nonsym 1-usesym 2-fastsym
   LCORR  =      T    Harris-Foulkes like correction to forces

   POTIM  = 0.5000    time-step for ionic-motion
   TEIN   =    0.0    initial temperature
   TEBEG  =    0.0;   TEEND  =   0.0 temperature during run
   SMASS  =  -3.00    Nose mass-parameter (am)
   estimated Nose-frequenzy (Omega)   =  0.10E-29 period in steps = 0.13E+47 mass=  -0.351E-27a.u.
   SCALEE = 1.0000    scale energy and forces
   NPACO  =    256;   APACO  = 10.0  distance and # of slots for P.C.
   PSTRESS=    0.0 pullay stress

  Mass of Ions in am
   POMASS = 106.42
  Ionic Valenz
   ZVAL   =  16.00
  Atomic Wigner-Seitz radii
   RWIGS  =  -1.00
  virtual crystal weights 
   VCA    =   1.00
   NELECT =      64.0000    total number of electrons
   NUPDOWN=      -1.0000    fix difference up-down

 DOS related values:
   EMIN   =  10.00;   EMAX   =-10.00  energy-range for DOS
   EFERMI =   0.00;   METHOD = LEGACY      
   ISMEAR =     1;   SIGMA  =   0.10  broadening in eV -4-tet -1-fermi 0-gaus

 Electronic relaxation 2 (details)
   IALGO  =     38    algorithm
   LDIAG  =      T    sub-space diagonalisation (order eigenvalues)
   LSUBROT=      F    optimize rotation matrix (better conditioning)
   TURBO    =      0    0=normal 1=particle mesh
   IRESTART =      0    0=no restart 2=restart with 2 vectors
   NREBOOT  =      0    no. of reboots
   NMIN     =      0    reboot dimension
   EREF     =   0.00    reference energy to select bands
   IMIX   =      4    mixing-type and parameters
     AMIX     =   0.40;   BMIX     =  1.00
     AMIX_MAG =   1.60;   BMIX_MAG =  1.00
     AMIN     =   0.10
     WC   =   100.;   INIMIX=   1;  MIXPRE=   1;  MAXMIX= -45

 Intra band minimization:
   WEIMIN = 0.0000     energy-eigenvalue tresh-hold
   EBREAK =  0.62E-08  absolut break condition
   DEPER  =   0.30     relativ break condition  

   TIME   =   0.40     timestep for ELM

  volume/ion in A,a.u.               =      15.03       101.41
  Fermi-wavevector in a.u.,A,eV,Ry     =   1.671659  3.158978 38.020738  2.794445
  Thomas-Fermi vector in A             =   2.756943
 
 Write flags
   LWAVE        =      F    write WAVECAR
   LDOWNSAMPLE  =      F    k-point downsampling of WAVECAR
   LCHARG       =      F    write CHGCAR
   LVTOT        =      F    write LOCPOT, total local potential
   LVHAR        =      F    write LOCPOT, Hartree potential only
   WRT_POTENTIAL= false  ! write potential to hdf5 file
   LELF         =      F    write electronic localiz. function (ELF)
   LORBIT       =     11    0 simple, 1 ext, 2 COOP (PROOUT), +10 PAW based schemes


 Dipole corrections
   LMONO      =      F    monopole corrections only (constant potential shift)
   LDIPOL     =      F    correct potential (dipole corrections)
   IDIPOL     =      0    1-x, 2-y, 3-z, 4-all directions 
   EPSILON    =  1.0000000 bulk dielectric constant
   LVACPOTAV  =      F  vacuum potentials using an averaging scheme for the charge density
   VACPOTFLAT =  0.1000000 required flatness to determine vacuum potential
 Exchange correlation treatment:
   GGA     = PE    functional components
   XC_C    = 1    coefficients multiplying the functional components
   LIBXC   =     F    Libxc                    
   VOSKOWN =     0    Vosko Wilk Nusair interpolation
   LHFCALC =     F    Hartree Fock is set to
   LHFONE  =     F    Hartree Fock one center treatment
   AEXX    =    0.0000 exact exchange contribution

 Parameters of functionals:
   PE:
     No parameter
 
 Van der Waals corrections
   IVDW    =    12    specifies the selected vdW correction

 Linear response parameters
   LEPSILON=     F    determine dielectric tensor
   LRPA    =     F    only Hartree local field effects (RPA)
   LNABLA  =     F    use nabla operator in PAW spheres
   LVEL    =     F    velocity operator in full k-point grid
   CSHIFT  =0.1000    complex shift for real part using Kramers Kronig
   OMEGAMAX=  -1.0    maximum frequency
   DEG_THRESHOLD= 0.2000000E-02 threshold for treating states as degnerate
   RTIME   =   -0.100 relaxation time in fs
  (WPLASMAI=    0.000 imaginary part of plasma frequency in eV, 0.658/RTIME)
   DFIELD  = 0.0000000 0.0000000 0.0000000 field for delta impulse in time
 
  Optional k-point grid parameters
   LKPOINTS_OPT  =     F    use optional k-point grid
   KPOINTS_OPT_MODE=     1    mode for optional k-point grid
 
 Orbital magnetization related:
   ORBITALMAG=     F  switch on orbital magnetization
   LCHIMAG   =     F  perturbation theory with respect to B field
   DQ        =  0.001000  dq finite difference perturbation B field
   LLRAUG    =     F  two centre corrections for induced B field
   LBONE     =     F  B-component reconstruction in AE one-centre
   LVGVCALC  =     T  calculate vGv susceptibility
   LVGVAPPL  =     F  apply vGv susceptibility instead of pGv for G=0

 Random number generation:
   RANDOM_GENERATOR = DEFAULT
   PCG_SEED         = not used


--------------------------------------------------------------------------------------------------------


 Static calculation
 charge density and potential will be updated during run
 spin polarized calculation
 Variant of blocked Davidson
 Davidson routine will perform the subspace rotation
 perform sub-space diagonalisation
    after iterative eigenvector-optimisation
 modified Broyden-mixing scheme, WC =      100.0
 initial mixing is a Kerker type mixing with AMIX =  0.4000 and BMIX =      1.0000
 Hartree-type preconditioning will be used
 using additional bands             8
 reciprocal scheme for non local part
 use partial core corrections
 calculate Harris-corrections to forces 
   (improved forces if not selfconsistent)
 use gradient corrections 
 use of overlap-Matrix (Vanderbilt PP)
 Methfessel and Paxton  Order N= 1 SIGMA  =   0.10


--------------------------------------------------------------------------------------------------------


  energy-cutoff  :      400.00
  volume of cell :       60.11
      direct lattice vectors                 reciprocal lattice vectors
     3.917301575  0.000000000  0.000000000     0.255277767 -0.000000000  0.000000000
     0.000000000  3.917301575  0.000000000     0.000000000  0.255277767  0.000000000
     0.000000000  0.000000000  3.917301575    -0.000000000 -0.000000000  0.255277767

  length of vectors
     3.917301575  3.917301575  3.917301575     0.255277767  0.255277767  0.255277767


 
 k-points in units of 2pi/SCALE and weight: Automatic mesh                          
   0.00000000  0.00000000  0.00000000       0.001
   0.02127315  0.00000000  0.00000000       0.003
   0.04254629  0.00000000  0.00000000       0.003
   0.06381944  0.00000000  0.00000000       0.003
   0.08509259  0.00000000  0.00000000       0.003
   0.10636574  0.00000000  0.00000000       0.003
   0.12763888  0.00000000  0.00000000       0.002
   0.02127315  0.02127315  0.00000000       0.007
   0.04254629  0.02127315  0.00000000       0.014
   0.06381944  0.02127315  0.00000000       0.014
   0.08509259  0.02127315  0.00000000       0.014
   0.10636574  0.02127315  0.00000000       0.014
   0.12763888  0.02127315  0.00000000       0.007
   0.04254629  0.04254629  0.00000000       0.007
   0.06381944  0.04254629  0.00000000       0.014
   0.08509259  0.04254629  0.00000000       0.014
   0.10636574  0.04254629  0.00000000       0.014
   0.12763888  0.04254629  0.00000000       0.007
   0.06381944  0.06381944  0.00000000       0.007
   0.08509259  0.06381944  0.00000000       0.014
   0.10636574  0.06381944  0.00000000       0.014
   0.12763888  0.06381944  0.00000000       0.007
   0.08509259  0.08509259  0.00000000       0.007
   0.10636574  0.08509259  0.00000000       0.014
   0.12763888  0.08509259  0.00000000       0.007
   0.10636574  0.10636574  0.00000000       0.007
   0.12763888  0.10636574  0.00000000       0.007
   0.12763888  0.12763888  0.00000000       0.002
   0.02127315  0.02127315  0.02127315       0.005
   0.04254629  0.02127315  0.02127315       0.014
   0.06381944  0.02127315  0.02127315       0.014
   0.08509259  0.02127315  0.02127315       0.014
   0.10636574  0.02127315  0.02127315       0.014
   0.12763888  0.02127315  0.02127315       0.007
   0.04254629  0.04254629  0.02127315       0.014
   0.06381944  0.04254629  0.02127315       0.028
   0.08509259  0.04254629  0.02127315       0.028
   0.10636574  0.04254629  0.02127315       0.028
   0.12763888  0.04254629  0.02127315       0.014
   0.06381944  0.06381944  0.02127315       0.014
   0.08509259  0.06381944  0.02127315       0.028
   0.10636574  0.06381944  0.02127315       0.028
   0.12763888  0.06381944  0.02127315       0.014
   0.08509259  0.08509259  0.02127315       0.014
   0.10636574  0.08509259  0.02127315       0.028
   0.12763888  0.08509259  0.02127315       0.014
   0.10636574  0.10636574  0.02127315       0.014
   0.12763888  0.10636574  0.02127315       0.014
   0.12763888  0.12763888  0.02127315       0.003
   0.04254629  0.04254629  0.04254629       0.005
   0.06381944  0.04254629  0.04254629       0.014
   0.08509259  0.04254629  0.04254629       0.014
   0.10636574  0.04254629  0.04254629       0.014
   0.12763888  0.04254629  0.04254629       0.007
   0.06381944  0.06381944  0.04254629       0.014
   0.08509259  0.06381944  0.04254629       0.028
   0.10636574  0.06381944  0.04254629       0.028
   0.12763888  0.06381944  0.04254629       0.014
   0.08509259  0.08509259  0.04254629       0.014
   0.10636574  0.08509259  0.04254629       0.028
   0.12763888  0.08509259  0.04254629       0.014
   0.10636574  0.10636574  0.04254629       0.014
   0.12763888  0.10636574  0.04254629       0.014
   0.12763888  0.12763888  0.04254629       0.003
   0.06381944  0.06381944  0.06381944       0.005
   0.08509259  0.06381944  0.06381944       0.014
   0.10636574  0.06381944  0.06381944       0.014
   0.12763888  0.06381944  0.06381944       0.007
   0.08509259  0.08509259  0.06381944       0.014
   0.10636574  0.08509259  0.06381944       0.028
   0.12763888  0.08509259  0.06381944       0.014
   0.10636574  0.10636574  0.06381944       0.014
   0.12763888  0.10636574  0.06381944       0.014
   0.12763888  0.12763888  0.06381944       0.003
   0.08509259  0.08509259  0.08509259       0.005
   0.10636574  0.08509259  0.08509259       0.014
   0.12763888  0.08509259  0.08509259       0.007
   0.10636574  0.10636574  0.08509259       0.014
   0.12763888  0.10636574  0.08509259       0.014
   0.12763888  0.12763888  0.08509259       0.003
   0.10636574  0.10636574  0.10636574       0.005
   0.12763888  0.10636574  0.10636574       0.007
   0.12763888  0.12763888  0.10636574       0.003
   0.12763888  0.12763888  0.12763888       0.001
 
 k-points in reciprocal lattice and weights: Automatic mesh                          
   0.00000000  0.00000000  0.00000000       0.001
   0.08333333  0.00000000  0.00000000       0.003
   0.16666667  0.00000000  0.00000000       0.003
   0.25000000  0.00000000  0.00000000       0.003
   0.33333333  0.00000000  0.00000000       0.003
   0.41666667  0.00000000  0.00000000       0.003
   0.50000000  0.00000000  0.00000000       0.002
   0.08333333  0.08333333  0.00000000       0.007
   0.16666667  0.08333333  0.00000000       0.014
   0.25000000  0.08333333  0.00000000       0.014
   0.33333333  0.08333333  0.00000000       0.014
   0.41666667  0.08333333  0.00000000       0.014
   0.50000000  0.08333333  0.00000000       0.007
   0.16666667  0.16666667  0.00000000       0.007
   0.25000000  0.16666667  0.00000000       0.014
   0.33333333  0.16666667  0.00000000       0.014
   0.41666667  0.16666667  0.00000000       0.014
   0.50000000  0.16666667  0.00000000       0.007
   0.25000000  0.25000000  0.00000000       0.007
   0.33333333  0.25000000  0.00000000       0.014
   0.41666667  0.25000000  0.00000000       0.014
   0.50000000  0.25000000  0.00000000       0.007
   0.33333333  0.33333333  0.00000000       0.007
   0.41666667  0.33333333  0.00000000       0.014
   0.50000000  0.33333333  0.00000000       0.007
   0.41666667  0.41666667  0.00000000       0.007
   0.50000000  0.41666667  0.00000000       0.007
   0.50000000  0.50000000  0.00000000       0.002
   0.08333333  0.08333333  0.08333333       0.005
   0.16666667  0.08333333  0.08333333       0.014
   0.25000000  0.08333333  0.08333333       0.014
   0.33333333  0.08333333  0.08333333       0.014
   0.41666667  0.08333333  0.08333333       0.014
   0.50000000  0.08333333  0.08333333       0.007
   0.16666667  0.16666667  0.08333333       0.014
   0.25000000  0.16666667  0.08333333       0.028
   0.33333333  0.16666667  0.08333333       0.028
   0.41666667  0.16666667  0.08333333       0.028
   0.50000000  0.16666667  0.08333333       0.014
   0.25000000  0.25000000  0.08333333       0.014
   0.33333333  0.25000000  0.08333333       0.028
   0.41666667  0.25000000  0.08333333       0.028
   0.50000000  0.25000000  0.08333333       0.014
   0.33333333  0.33333333  0.08333333       0.014
   0.41666667  0.33333333  0.08333333       0.028
   0.50000000  0.33333333  0.08333333       0.014
   0.41666667  0.41666667  0.08333333       0.014
   0.50000000  0.41666667  0.08333333       0.014
   0.50000000  0.50000000  0.08333333       0.003
   0.16666667  0.16666667  0.16666667       0.005
   0.25000000  0.16666667  0.16666667       0.014
   0.33333333  0.16666667  0.16666667       0.014
   0.41666667  0.16666667  0.16666667       0.014
   0.50000000  0.16666667  0.16666667       0.007
   0.25000000  0.25000000  0.16666667       0.014
   0.33333333  0.25000000  0.16666667       0.028
   0.41666667  0.25000000  0.16666667       0.028
   0.50000000  0.25000000  0.16666667       0.014
   0.33333333  0.33333333  0.16666667       0.014
   0.41666667  0.33333333  0.16666667       0.028
   0.50000000  0.33333333  0.16666667       0.014
   0.41666667  0.41666667  0.16666667       0.014
   0.50000000  0.41666667  0.16666667       0.014
   0.50000000  0.50000000  0.16666667       0.003
   0.25000000  0.25000000  0.25000000       0.005
   0.33333333  0.25000000  0.25000000       0.014
   0.41666667  0.25000000  0.25000000       0.014
   0.50000000  0.25000000  0.25000000       0.007
   0.33333333  0.33333333  0.25000000       0.014
   0.41666667  0.33333333  0.25000000       0.028
   0.50000000  0.33333333  0.25000000       0.014
   0.41666667  0.41666667  0.25000000       0.014
   0.50000000  0.41666667  0.25000000       0.014
   0.50000000  0.50000000  0.25000000       0.003
   0.33333333  0.33333333  0.33333333       0.005
   0.41666667  0.33333333  0.33333333       0.014
   0.50000000  0.33333333  0.33333333       0.007
   0.41666667  0.41666667  0.33333333       0.014
   0.50000000  0.41666667  0.33333333       0.014
   0.50000000  0.50000000  0.33333333       0.003
   0.41666667  0.41666667  0.41666667       0.005
   0.50000000  0.41666667  0.41666667       0.007
   0.50000000  0.50000000  0.41666667       0.003
   0.50000000  0.50000000  0.50000000       0.001
 
 position of ions in fractional coordinates (direct lattice) 
   0.00000000  0.00000000  0.00000000
   0.00000000  0.50000000  0.50000000
   0.50000000  0.00000000  0.50000000
   0.50000000  0.50000000  0.00000000
 
 position of ions in cartesian coordinates  (Angst):
   0.00000000  0.00000000  0.00000000
   0.00000000  1.95865079  1.95865079
   1.95865079  0.00000000  1.95865079
   1.95865079  1.95865079  0.00000000
 


--------------------------------------------------------------------------------------------------------


 k-point     1 :   0.0000 0.0000 0.0000  plane waves:    1045
 k-point     2 :   0.0833 0.0000 0.0000  plane waves:    1077
 k-point     3 :   0.1667 0.0000 0.0000  plane waves:    1101
 k-point     4 :   0.2500 0.0000 0.0000  plane waves:    1097
 k-point     5 :   0.3333 0.0000 0.0000  plane waves:    1089
 k-point     6 :   0.4167 0.0000 0.0000  plane waves:    1100
 k-point     7 :   0.5000 0.0000 0.0000  plane waves:    1108
 k-point     8 :   0.0833 0.0833 0.0000  plane waves:    1079
 k-point     9 :   0.1667 0.0833 0.0000  plane waves:    1094
 k-point    10 :   0.2500 0.0833 0.0000  plane waves:    1094
 k-point    11 :   0.3333 0.0833 0.0000  plane waves:    1099
 k-point    12 :   0.4167 0.0833 0.0000  plane waves:    1102
 k-point    13 :   0.5000 0.0833 0.0000  plane waves:    1108
 k-point    14 :   0.1667 0.1667 0.0000  plane waves:    1103
 k-point    15 :   0.2500 0.1667 0.0000  plane waves:    1095
 k-point    16 :   0.3333 0.1667 0.0000  plane waves:    1104
 k-point    17 :   0.4167 0.1667 0.0000  plane waves:    1095
 k-point    18 :   0.5000 0.1667 0.0000  plane waves:    1098
 k-point    19 :   0.2500 0.2500 0.0000  plane waves:    1103
 k-point    20 :   0.3333 0.2500 0.0000  plane waves:    1088
 k-point    21 :   0.4167 0.2500 0.0000  plane waves:    1097
 k-point    22 :   0.5000 0.2500 0.0000  plane waves:    1090
 k-point    23 :   0.3333 0.3333 0.0000  plane waves:    1095
 k-point    24 :   0.4167 0.3333 0.0000  plane waves:    1094
 k-point    25 :   0.5000 0.3333 0.0000  plane waves:    1090
 k-point    26 :   0.4167 0.4167 0.0000  plane waves:    1089
 k-point    27 :   0.5000 0.4167 0.0000  plane waves:    1090
 k-point    28 :   0.5000 0.5000 0.0000  plane waves:    1092
 k-point    29 :   0.0833 0.0833 0.0833  plane waves:    1093
 k-point    30 :   0.1667 0.0833 0.0833  plane waves:    1092
 k-point    31 :   0.2500 0.0833 0.0833  plane waves:    1093
 k-point    32 :   0.3333 0.0833 0.0833  plane waves:    1097
 k-point    33 :   0.4167 0.0833 0.0833  plane waves:    1096
 k-point    34 :   0.5000 0.0833 0.0833  plane waves:    1100
 k-point    35 :   0.1667 0.1667 0.0833  plane waves:    1094
 k-point    36 :   0.2500 0.1667 0.0833  plane waves:    1095
 k-point    37 :   0.3333 0.1667 0.0833  plane waves:    1094
 k-point    38 :   0.4167 0.1667 0.0833  plane waves:    1099
 k-point    39 :   0.5000 0.1667 0.0833  plane waves:    1102
 k-point    40 :   0.2500 0.2500 0.0833  plane waves:    1098
 k-point    41 :   0.3333 0.2500 0.0833  plane waves:    1097
 k-point    42 :   0.4167 0.2500 0.0833  plane waves:    1101
 k-point    43 :   0.5000 0.2500 0.0833  plane waves:    1098
 k-point    44 :   0.3333 0.3333 0.0833  plane waves:    1096
 k-point    45 :   0.4167 0.3333 0.0833  plane waves:    1094
 k-point    46 :   0.5000 0.3333 0.0833  plane waves:    1090
 k-point    47 :   0.4167 0.4167 0.0833  plane waves:    1083
 k-point    48 :   0.5000 0.4167 0.0833  plane waves:    1084
 k-point    49 :   0.5000 0.5000 0.0833  plane waves:    1076
 k-point    50 :   0.1667 0.1667 0.1667  plane waves:    1093
 k-point    51 :   0.2500 0.1667 0.1667  plane waves:    1094
 k-point    52 :   0.3333 0.1667 0.1667  plane waves:    1085
 k-point    53 :   0.4167 0.1667 0.1667  plane waves:    1100
 k-point    54 :   0.5000 0.1667 0.1667  plane waves:    1090
 k-point    55 :   0.2500 0.2500 0.1667  plane waves:    1093
 k-point    56 :   0.3333 0.2500 0.1667  plane waves:    1090
 k-point    57 :   0.4167 0.2500 0.1667  plane waves:    1095
 k-point    58 :   0.5000 0.2500 0.1667  plane waves:    1094
 k-point    59 :   0.3333 0.3333 0.1667  plane waves:    1090
 k-point    60 :   0.4167 0.3333 0.1667  plane waves:    1086
 k-point    61 :   0.5000 0.3333 0.1667  plane waves:    1098
 k-point    62 :   0.4167 0.4167 0.1667  plane waves:    1082
 k-point    63 :   0.5000 0.4167 0.1667  plane waves:    1092
 k-point    64 :   0.5000 0.5000 0.1667  plane waves:    1092
 k-point    65 :   0.2500 0.2500 0.2500  plane waves:    1093
 k-point    66 :   0.3333 0.2500 0.2500  plane waves:    1090
 k-point    67 :   0.4167 0.2500 0.2500  plane waves:    1095
 k-point    68 :   0.5000 0.2500 0.2500  plane waves:    1078
 k-point    69 :   0.3333 0.3333 0.2500  plane waves:    1095
 k-point    70 :   0.4167 0.3333 0.2500  plane waves:    1083
 k-point    71 :   0.5000 0.3333 0.2500  plane waves:    1082
 k-point    72 :   0.4167 0.4167 0.2500  plane waves:    1078
 k-point    73 :   0.5000 0.4167 0.2500  plane waves:    1080
 k-point    74 :   0.5000 0.5000 0.2500  plane waves:    1084
 k-point    75 :   0.3333 0.3333 0.3333  plane waves:    1088
 k-point    76 :   0.4167 0.3333 0.3333  plane waves:    1085
 k-point    77 :   0.5000 0.3333 0.3333  plane waves:    1088
 k-point    78 :   0.4167 0.4167 0.3333  plane waves:    1088
 k-point    79 :   0.5000 0.4167 0.3333  plane waves:    1082
 k-point    80 :   0.5000 0.5000 0.3333  plane waves:    1080
 k-point    81 :   0.4167 0.4167 0.4167  plane waves:    1076
 k-point    82 :   0.5000 0.4167 0.4167  plane waves:    1078
 k-point    83 :   0.5000 0.5000 0.4167  plane waves:    1076
 k-point    84 :   0.5000 0.5000 0.5000  plane waves:    1088

 maximum and minimum number of plane-waves per node :      1108     1045

 maximum number of plane-waves:      1108
 maximum index in each direction: 
   IXMAX=    6   IYMAX=    6   IZMAX=    6
   IXMIN=   -6   IYMIN=   -6   IZMIN=   -6


 serial   3D FFT for wavefunctions
 parallel 3D FFT for charge:
    minimum data exchange during FFTs selected (reduces bandwidth)


 total amount of memory used by VASP MPI-rank0    86956. kBytes
=======================================================================

   base      :      30000. kBytes
   nonl-proj :      13473. kBytes
   fftplans  :       6611. kBytes
   grid      :       5030. kBytes
   one-center:        124. kBytes
   wavefun   :      31718. kBytes
 
     INWAV:  cpu time      0.0000: real time      0.0001
 Broyden mixing: mesh for mixing (old mesh)
   NGX = 13   NGY = 13   NGZ = 13
  (NGX  = 56   NGY  = 56   NGZ  = 56)
  gives a total of   2197 points

 initial charge density was supplied:
 charge density of overlapping atoms calculated
 number of electron      64.0000000 magnetization       4.0000000
 keeping initial charge density in first step


--------------------------------------------------------------------------------------------------------


 Maximum index for augmentation-charges         28435 (set IRDMAX)


--------------------------------------------------------------------------------------------------------


 First call to EWALD:  gamma=   0.452
 Maximum number of real-space cells 3x 3x 3
 Maximum number of reciprocal cells 3x 3x 3

    FEWALD:  cpu time      0.0005: real time      0.0005


--------------------------------------- Ionic step        1  -------------------------------------------




--------------------------------------- Iteration      1(   1)  ---------------------------------------


    POTLOK:  cpu time      0.0353: real time      0.0354
    SETDIJ:  cpu time      0.4505: real time      0.4792
     EDDAV:  cpu time      6.3959: real time      6.7973
       DOS:  cpu time      0.0012: real time      0.0012
    --------------------------------------------
      LOOP:  cpu time      6.8829: real time      7.3131

 eigenvalue-minimisations  : 14360
 total energy-change (2. order) : 0.6917862E+03  (-0.3469646E+04)
 number of electron      64.0000000 magnetization       4.0000000
 augmentation part       64.0000000 magnetization       4.0000000

 Free energy of the ion-electron system (eV)
  ---------------------------------------------------
  alpha Z        PSCENC =       542.73305656
  Ewald energy   TEWEN  =     -8629.09612564
  -Hartree energ DENC   =     -2225.92554515
  -exchange      EXHF   =         0.00000000
  -V(xc)+E(xc)   XCENC  =       331.53594604
  PAW double counting   =      9031.68406025    -8916.38598993
  entropy T*S    EENTRO =        -0.00002828
  eigenvalues    EBANDS =        71.10521992
  atomic energy  EATOM  =     10486.13565542
  Solvation  Ediel_sol  =         0.00000000
  ---------------------------------------------------
  free energy    TOTEN  =       691.78624920 eV

  energy without entropy =      691.78627747  energy(sigma->0) =      691.78625862


--------------------------------------------------------------------------------------------------------




--------------------------------------- Iteration      1(   2)  ---------------------------------------


     EDDAV:  cpu time      5.0653: real time      5.5063
       DOS:  cpu time      0.0011: real time      0.0011
    --------------------------------------------
      LOOP:  cpu time      5.0665: real time      5.5074

 eigenvalue-minimisations  : 14384
 total energy-change (2. order) :-0.6886615E+03  (-0.6618360E+03)
 number of electron      64.0000000 magnetization       4.0000000
 augmentation part       64.0000000 magnetization       4.0000000

 Free energy of the ion-electron system (eV)
  ---------------------------------------------------
  alpha Z        PSCENC =       542.73305656
  Ewald energy   TEWEN  =     -8629.09612564
  -Hartree energ DENC   =     -2225.92554515
  -exchange      EXHF   =         0.00000000
  -V(xc)+E(xc)   XCENC  =       331.53594604
  PAW double counting   =      9031.68406025    -8916.38598993
  entropy T*S    EENTRO =        -0.00166386
  eigenvalues    EBANDS =      -617.55466113
  atomic energy  EATOM  =     10486.13565542
  Solvation  Ediel_sol  =         0.00000000
  ---------------------------------------------------
  free energy    TOTEN  =         3.12473255 eV

  energy without entropy =        3.12639641  energy(sigma->0) =        3.12528717


--------------------------------------------------------------------------------------------------------




--------------------------------------- Iteration      1(   3)  ---------------------------------------


     EDDAV:  cpu time      5.1718: real time      5.2599
       DOS:  cpu time      0.0012: real time      0.0012
    --------------------------------------------
      LOOP:  cpu time      5.1730: real time      5.2611

 eigenvalue-minimisations  : 15032
 total energy-change (2. order) :-0.2455269E+02  (-0.2408294E+02)
 number of electron      64.0000000 magnetization       4.0000000
 augmentation part       64.0000000 magnetization       4.0000000

 Free energy of the ion-electron system (eV)
  ---------------------------------------------------
  alpha Z        PSCENC =       542.73305656
  Ewald energy   TEWEN  =     -8629.09612564
  -Hartree energ DENC   =     -2225.92554515
  -exchange      EXHF   =         0.00000000
  -V(xc)+E(xc)   XCENC  =       331.53594604
  PAW double counting   =      9031.68406025    -8916.38598993
  entropy T*S    EENTRO =         0.00153854
  eigenvalues    EBANDS =      -642.11055329
  atomic energy  EATOM  =     10486.13565542
  Solvation  Ediel_sol  =         0.00000000
  ---------------------------------------------------
  free energy    TOTEN  =       -21.42795720 eV

  energy without entropy =      -21.42949574  energy(sigma->0) =      -21.42847004


--------------------------------------------------------------------------------------------------------




--------------------------------------- Iteration      1(   4)  ---------------------------------------


     EDDAV:  cpu time      5.2534: real time      5.3895
       DOS:  cpu time      0.0011: real time      0.0011
    --------------------------------------------
      LOOP:  cpu time      5.2545: real time      5.3906

 eigenvalue-minimisations  : 14352
 total energy-change (2. order) :-0.2590796E+00  (-0.2590417E+00)
 number of electron      64.0000000 magnetization       4.0000000
 augmentation part       64.0000000 magnetization       4.0000000

 Free energy of the ion-electron system (eV)
  ---------------------------------------------------
  alpha Z        PSCENC =       542.73305656
  Ewald energy   TEWEN  =     -8629.09612564
  -Hartree energ DENC   =     -2225.92554515
  -exchange      EXHF   =         0.00000000
  -V(xc)+E(xc)   XCENC  =       331.53594604
  PAW double counting   =      9031.68406025    -8916.38598993
  entropy T*S    EENTRO =         0.00147882
  eigenvalues    EBANDS =      -642.36957318
  atomic energy  EATOM  =     10486.13565542
  Solvation  Ediel_sol  =         0.00000000
  ---------------------------------------------------
  free energy    TOTEN  =       -21.68703681 eV

  energy without entropy =      -21.68851563  energy(sigma->0) =      -21.68752975


--------------------------------------------------------------------------------------------------------




--------------------------------------- Iteration      1(   5)  ---------------------------------------


     EDDAV:  cpu time      5.9102: real time      6.0661
       DOS:  cpu time      0.0012: real time      0.0012
    CHARGE:  cpu time      0.5375: real time      0.5375
    MIXING:  cpu time      0.0010: real time      0.0010
    --------------------------------------------
      LOOP:  cpu time      6.4499: real time      6.6058

 eigenvalue-minimisations  : 14936
 total energy-change (2. order) :-0.4230185E-02  (-0.4230147E-02)
 number of electron      64.0000003 magnetization       1.8393315
 augmentation part       29.8701928 magnetization       1.0181669

 Broyden mixing:
  rms(total) = 0.10808E+01    rms(broyden)= 0.10806E+01
  rms(prec ) = 0.18640E+01
  weight for this iteration     100.00

 Free energy of the ion-electron system (eV)
  ---------------------------------------------------
  alpha Z        PSCENC =       542.73305656
  Ewald energy   TEWEN  =     -8629.09612564
  -Hartree energ DENC   =     -2225.92554515
  -exchange      EXHF   =         0.00000000
  -V(xc)+E(xc)   XCENC  =       331.53594604
  PAW double counting   =      9031.68406025    -8916.38598993
  entropy T*S    EENTRO =         0.00147847
  eigenvalues    EBANDS =      -642.37380301
  atomic energy  EATOM  =     10486.13565542
  Solvation  Ediel_sol  =         0.00000000
  ---------------------------------------------------
  free energy    TOTEN  =       -21.69126699 eV

  energy without entropy =      -21.69274546  energy(sigma->0) =      -21.69175981


--------------------------------------------------------------------------------------------------------




--------------------------------------- Iteration      1(   6)  ---------------------------------------


    POTLOK:  cpu time      0.0383: real time      0.0384
    SETDIJ:  cpu time      0.4123: real time      0.4123
     EDDAV:  cpu time      5.5540: real time      5.5557
       DOS:  cpu time      0.0013: real time      0.0013
    CHARGE:  cpu time      0.5223: real time      0.5227
    MIXING:  cpu time      0.0011: real time      0.0011
    --------------------------------------------
      LOOP:  cpu time      6.5293: real time      6.5314

 eigenvalue-minimisations  : 14312
 total energy-change (2. order) : 0.8680009E+00  (-0.3745610E+00)
 number of electron      64.0000003 magnetization       1.5100268
 augmentation part       30.6914335 magnetization       0.9148233

 Broyden mixing:
  rms(total) = 0.22955E+00    rms(broyden)= 0.22945E+00
  rms(prec ) = 0.27693E+00
  weight for this iteration     100.00

 eigenvalues of (default mixing * dielectric matrix)
  average eigenvalue GAMMA=   1.0114
  1.0114

 Free energy of the ion-electron system (eV)
  ---------------------------------------------------
  alpha Z        PSCENC =       542.73305656
  Ewald energy   TEWEN  =     -8629.09612564
  -Hartree energ DENC   =     -2157.28528915
  -exchange      EXHF   =         0.00000000
  -V(xc)+E(xc)   XCENC  =       328.31948988
  PAW double counting   =      9250.80904794    -9143.29059414
  entropy T*S    EENTRO =         0.00074962
  eigenvalues    EBANDS =      -699.14925663
  atomic energy  EATOM  =     10486.13565542
  Solvation  Ediel_sol  =         0.00000000
  ---------------------------------------------------
  free energy    TOTEN  =       -20.82326613 eV

  energy without entropy =      -20.82401576  energy(sigma->0) =      -20.82351601


--------------------------------------------------------------------------------------------------------




--------------------------------------- Iteration      1(   7)  ---------------------------------------


    POTLOK:  cpu time      0.0334: real time      0.0335
    SETDIJ:  cpu time      0.4072: real time      0.4072
     EDDAV:  cpu time      5.0284: real time      5.0298
       DOS:  cpu time      0.0011: real time      0.0011
    CHARGE:  cpu time      0.5190: real time      0.5191
    MIXING:  cpu time      0.0012: real time      0.0012
    --------------------------------------------
      LOOP:  cpu time      5.9902: real time      5.9918

 eigenvalue-minimisations  : 14432
 total energy-change (2. order) : 0.1357938E-02  (-0.3863945E-02)
 number of electron      64.0000003 magnetization       1.2832687
 augmentation part       30.6766419 magnetization       0.8049949

 Broyden mixing:
  rms(total) = 0.15244E+00    rms(broyden)= 0.15243E+00
  rms(prec ) = 0.17971E+00
  weight for this iteration     100.00

 eigenvalues of (default mixing * dielectric matrix)
  average eigenvalue GAMMA=   0.9709
  1.2939  0.6480

 Free energy of the ion-electron system (eV)
  ---------------------------------------------------
  alpha Z        PSCENC =       542.73305656
  Ewald energy   TEWEN  =     -8629.09612564
  -Hartree energ DENC   =     -2156.51216921
  -exchange      EXHF   =         0.00000000
  -V(xc)+E(xc)   XCENC  =       328.26677346
  PAW double counting   =      9381.11622031    -9274.92040572
  entropy T*S    EENTRO =        -0.00030605
  eigenvalues    EBANDS =      -698.54460734
  atomic energy  EATOM  =     10486.13565542
  Solvation  Ediel_sol  =         0.00000000
  ---------------------------------------------------
  free energy    TOTEN  =       -20.82190820 eV

  energy without entropy =      -20.82160214  energy(sigma->0) =      -20.82180618


--------------------------------------------------------------------------------------------------------




--------------------------------------- Iteration      1(   8)  ---------------------------------------


    POTLOK:  cpu time      0.0326: real time      0.0326
    SETDIJ:  cpu time      0.4045: real time      0.4045
     EDDAV:  cpu time      5.0746: real time      5.0761
       DOS:  cpu time      0.0012: real time      0.0012
    CHARGE:  cpu time      0.5235: real time      0.5239
    MIXING:  cpu time      0.0011: real time      0.0010
    --------------------------------------------
      LOOP:  cpu time      6.0373: real time      6.0392

 eigenvalue-minimisations  : 14720
 total energy-change (2. order) : 0.1739424E-02  (-0.4619395E-03)
 number of electron      64.0000003 magnetization       1.0895277
 augmentation part       30.6773549 magnetization       0.6462057

 Broyden mixing:
  rms(total) = 0.83802E-01    rms(broyden)= 0.83793E-01
  rms(prec ) = 0.97700E-01
  weight for this iteration     100.00

 eigenvalues of (default mixing * dielectric matrix)
  average eigenvalue GAMMA=   1.2694
  2.2708  0.9238  0.6135

 Free energy of the ion-electron system (eV)
  ---------------------------------------------------
  alpha Z        PSCENC =       542.73305656
  Ewald energy   TEWEN  =     -8629.09612564
  -Hartree energ DENC   =     -2155.12408074
  -exchange      EXHF   =         0.00000000
  -V(xc)+E(xc)   XCENC  =       328.18721055
  PAW double counting   =      9473.90218937    -9368.50719810
  entropy T*S    EENTRO =        -0.00054101
  eigenvalues    EBANDS =      -699.05033519
  atomic energy  EATOM  =     10486.13565542
  Solvation  Ediel_sol  =         0.00000000
  ---------------------------------------------------
  free energy    TOTEN  =       -20.82016877 eV

  energy without entropy =      -20.81962777  energy(sigma->0) =      -20.81998844


--------------------------------------------------------------------------------------------------------




--------------------------------------- Iteration      1(   9)  ---------------------------------------


    POTLOK:  cpu time      0.0328: real time      0.0329
    SETDIJ:  cpu time      0.4130: real time      0.4130
     EDDAV:  cpu time      5.3381: real time      5.4670
       DOS:  cpu time      0.0013: real time      0.0013
    CHARGE:  cpu time      0.5247: real time      0.6013
    MIXING:  cpu time      0.0010: real time      0.0010
    --------------------------------------------
      LOOP:  cpu time      6.3110: real time      6.5165

 eigenvalue-minimisations  : 14288
 total energy-change (2. order) :-0.4897202E-03  (-0.2537411E-03)
 number of electron      64.0000003 magnetization       1.0676540
 augmentation part       30.6801297 magnetization       0.6836500

 Broyden mixing:
  rms(total) = 0.88552E-02    rms(broyden)= 0.86927E-02
  rms(prec ) = 0.10023E-01
  weight for this iteration     100.00

 eigenvalues of (default mixing * dielectric matrix)
  average eigenvalue GAMMA=   1.2520
  2.5817  0.9479  0.8634  0.6150

 Free energy of the ion-electron system (eV)
  ---------------------------------------------------
  alpha Z        PSCENC =       542.73305656
  Ewald energy   TEWEN  =     -8629.09612564
  -Hartree energ DENC   =     -2153.60810760
  -exchange      EXHF   =         0.00000000
  -V(xc)+E(xc)   XCENC  =       328.10791602
  PAW double counting   =      9576.63765636    -9471.97928037
  entropy T*S    EENTRO =        -0.00050328
  eigenvalues    EBANDS =      -699.75092596
  atomic energy  EATOM  =     10486.13565542
  Solvation  Ediel_sol  =         0.00000000
  ---------------------------------------------------
  free energy    TOTEN  =       -20.82065849 eV

  energy without entropy =      -20.82015521  energy(sigma->0) =      -20.82049073


--------------------------------------------------------------------------------------------------------




--------------------------------------- Iteration      1(  10)  ---------------------------------------


    POTLOK:  cpu time      0.0332: real time      0.0384
    SETDIJ:  cpu time      0.5606: real time      0.6331
     EDDAV:  cpu time      5.2519: real time      5.5540
       DOS:  cpu time      0.0012: real time      0.0012
    CHARGE:  cpu time      0.5247: real time      0.5254
    MIXING:  cpu time      0.0011: real time      0.0011
    --------------------------------------------
      LOOP:  cpu time      6.3727: real time      6.7532

 eigenvalue-minimisations  : 15128
 total energy-change (2. order) :-0.2627362E-03  (-0.2940941E-04)
 number of electron      64.0000003 magnetization       1.0466340
 augmentation part       30.6814534 magnetization       0.6729106

 Broyden mixing:
  rms(total) = 0.85393E-02    rms(broyden)= 0.85091E-02
  rms(prec ) = 0.94886E-02
  weight for this iteration     100.00

 eigenvalues of (default mixing * dielectric matrix)
  average eigenvalue GAMMA=   1.0968
  2.5947  0.9446  0.9446  0.6069  0.3933

 Free energy of the ion-electron system (eV)
  ---------------------------------------------------
  alpha Z        PSCENC =       542.73305656
  Ewald energy   TEWEN  =     -8629.09612564
  -Hartree energ DENC   =     -2153.65372111
  -exchange      EXHF   =         0.00000000
  -V(xc)+E(xc)   XCENC  =       328.10847062
  PAW double counting   =      9581.37519520    -9476.59596229
  entropy T*S    EENTRO =        -0.00045890
  eigenvalues    EBANDS =      -699.82703110
  atomic energy  EATOM  =     10486.13565542
  Solvation  Ediel_sol  =         0.00000000
  ---------------------------------------------------
  free energy    TOTEN  =       -20.82092123 eV

  energy without entropy =      -20.82046233  energy(sigma->0) =      -20.82076826


--------------------------------------------------------------------------------------------------------




--------------------------------------- Iteration      1(  11)  ---------------------------------------


    POTLOK:  cpu time      0.0331: real time      0.0332
    SETDIJ:  cpu time      0.4124: real time      0.4124
     EDDAV:  cpu time      5.1983: real time      5.3496
       DOS:  cpu time      0.0012: real time      0.0012
    CHARGE:  cpu time      0.5734: real time      0.6089
    MIXING:  cpu time      0.0012: real time      0.0012
    --------------------------------------------
      LOOP:  cpu time      6.2196: real time      6.4065

 eigenvalue-minimisations  : 14536
 total energy-change (2. order) :-0.5985185E-04  (-0.2914395E-05)
 number of electron      64.0000003 magnetization       0.9677748
 augmentation part       30.6815147 magnetization       0.6000023

 Broyden mixing:
  rms(total) = 0.68312E-02    rms(broyden)= 0.68232E-02
  rms(prec ) = 0.75095E-02
  weight for this iteration     100.00

 eigenvalues of (default mixing * dielectric matrix)
  average eigenvalue GAMMA=   1.5482
  3.2835  2.5188  1.1718  0.9693  0.6199  0.7260

 Free energy of the ion-electron system (eV)
  ---------------------------------------------------
  alpha Z        PSCENC =       542.73305656
  Ewald energy   TEWEN  =     -8629.09612564
  -Hartree energ DENC   =     -2153.75149341
  -exchange      EXHF   =         0.00000000
  -V(xc)+E(xc)   XCENC  =       328.11156452
  PAW double counting   =      9582.59576270    -9477.72362595
  entropy T*S    EENTRO =        -0.00039977
  eigenvalues    EBANDS =      -699.82537552
  atomic energy  EATOM  =     10486.13565542
  Solvation  Ediel_sol  =         0.00000000
  ---------------------------------------------------
  free energy    TOTEN  =       -20.82098108 eV

  energy without entropy =      -20.82058131  energy(sigma->0) =      -20.82084783


--------------------------------------------------------------------------------------------------------




--------------------------------------- Iteration      1(  12)  ---------------------------------------


    POTLOK:  cpu time      0.0423: real time      0.0425
    SETDIJ:  cpu time      0.4432: real time      0.4505
     EDDAV:  cpu time      5.5683: real time      5.6217
       DOS:  cpu time      0.0012: real time      0.0012
    CHARGE:  cpu time      0.5230: real time      0.5230
    MIXING:  cpu time      0.0012: real time      0.0012
    --------------------------------------------
      LOOP:  cpu time      6.5790: real time      6.6401

 eigenvalue-minimisations  : 14160
 total energy-change (2. order) :-0.6519676E-04  (-0.1522481E-04)
 number of electron      64.0000003 magnetization       0.9635201
 augmentation part       30.6812163 magnetization       0.6163373

 Broyden mixing:
  rms(total) = 0.10323E-02    rms(broyden)= 0.85460E-03
  rms(prec ) = 0.10670E-02
  weight for this iteration     100.00
  WARNING: grid for Broyden might be to small

 eigenvalues of (default mixing * dielectric matrix)
  average eigenvalue GAMMA=   1.4619
  3.5114  2.5225  1.1784  0.9634  0.7476  0.6235  0.6864

 Free energy of the ion-electron system (eV)
  ---------------------------------------------------
  alpha Z        PSCENC =       542.73305656
  Ewald energy   TEWEN  =     -8629.09612564
  -Hartree energ DENC   =     -2154.04051015
  -exchange      EXHF   =         0.00000000
  -V(xc)+E(xc)   XCENC  =       328.12051081
  PAW double counting   =      9584.86780410    -9479.75607114
  entropy T*S    EENTRO =        -0.00015997
  eigenvalues    EBANDS =      -699.78520628
  atomic energy  EATOM  =     10486.13565542
  Solvation  Ediel_sol  =         0.00000000
  ---------------------------------------------------
  free energy    TOTEN  =       -20.82104628 eV

  energy without entropy =      -20.82088631  energy(sigma->0) =      -20.82099295


--------------------------------------------------------------------------------------------------------




--------------------------------------- Iteration      1(  13)  ---------------------------------------


    POTLOK:  cpu time      0.0334: real time      0.0335
    SETDIJ:  cpu time      0.4077: real time      0.4076
     EDDAV:  cpu time      4.8685: real time      4.8704
       DOS:  cpu time      0.0012: real time      0.0012
    CHARGE:  cpu time      0.5207: real time      0.5207
    MIXING:  cpu time      0.0012: real time      0.0011
    --------------------------------------------
      LOOP:  cpu time      5.8325: real time      5.8346

 eigenvalue-minimisations  : 12464
 total energy-change (2. order) :-0.1028553E-04  (-0.4818290E-06)
 number of electron      64.0000003 magnetization       0.9598201
 augmentation part       30.6812548 magnetization       0.6137971

 Broyden mixing:
  rms(total) = 0.61175E-03    rms(broyden)= 0.58809E-03
  rms(prec ) = 0.73936E-03
  weight for this iteration     100.00

 eigenvalues of (default mixing * dielectric matrix)
  average eigenvalue GAMMA=   1.3782
  3.6798  2.5256  1.1756  0.9419  0.7651  0.6174  0.6602  0.6602

 Free energy of the ion-electron system (eV)
  ---------------------------------------------------
  alpha Z        PSCENC =       542.73305656
  Ewald energy   TEWEN  =     -8629.09612564
  -Hartree energ DENC   =     -2154.02777589
  -exchange      EXHF   =         0.00000000
  -V(xc)+E(xc)   XCENC  =       328.11977853
  PAW double counting   =      9584.62914880    -9479.52623870
  entropy T*S    EENTRO =        -0.00015030
  eigenvalues    EBANDS =      -699.78840535
  atomic energy  EATOM  =     10486.13565542
  Solvation  Ediel_sol  =         0.00000000
  ---------------------------------------------------
  free energy    TOTEN  =       -20.82105656 eV

  energy without entropy =      -20.82090627  energy(sigma->0) =      -20.82100647


--------------------------------------------------------------------------------------------------------




--------------------------------------- Iteration      1(  14)  ---------------------------------------


    POTLOK:  cpu time      0.0332: real time      0.0333
    SETDIJ:  cpu time      0.4169: real time      0.4170
     EDDAV:  cpu time      3.5357: real time      3.5394
       DOS:  cpu time      0.0012: real time      0.0012
    CHARGE:  cpu time      0.5251: real time      0.5252
    MIXING:  cpu time      0.0012: real time      0.0012
    --------------------------------------------
      LOOP:  cpu time      4.5134: real time      4.5173

 eigenvalue-minimisations  :  7464
 total energy-change (2. order) :-0.1869525E-05  (-0.7211514E-07)
 number of electron      64.0000003 magnetization       0.9575315
 augmentation part       30.6812913 magnetization       0.6125739

 Broyden mixing:
  rms(total) = 0.27030E-03    rms(broyden)= 0.26250E-03
  rms(prec ) = 0.37138E-03
  weight for this iteration     100.00

 eigenvalues of (default mixing * dielectric matrix)
  average eigenvalue GAMMA=   1.5012
  3.9003  2.5515  2.1987  1.1095  0.9903  0.7410  0.7410  0.6226  0.6558

 Free energy of the ion-electron system (eV)
  ---------------------------------------------------
  alpha Z        PSCENC =       542.73305656
  Ewald energy   TEWEN  =     -8629.09612564
  -Hartree energ DENC   =     -2154.01194926
  -exchange      EXHF   =         0.00000000
  -V(xc)+E(xc)   XCENC  =       328.11889989
  PAW double counting   =      9584.33319367    -9479.24295228
  entropy T*S    EENTRO =        -0.00013810
  eigenvalues    EBANDS =      -699.79069870
  atomic energy  EATOM  =     10486.13565542
  Solvation  Ediel_sol  =         0.00000000
  ---------------------------------------------------
  free energy    TOTEN  =       -20.82105843 eV

  energy without entropy =      -20.82092033  energy(sigma->0) =      -20.82101240


--------------------------------------------------------------------------------------------------------




--------------------------------------- Iteration      1(  15)  ---------------------------------------


    POTLOK:  cpu time      0.0333: real time      0.0334
    SETDIJ:  cpu time      0.4119: real time      0.4119
     EDDAV:  cpu time      3.7279: real time      3.7289
       DOS:  cpu time      0.0012: real time      0.0011
    CHARGE:  cpu time      0.5216: real time      0.5217
    MIXING:  cpu time      0.0011: real time      0.0011
    --------------------------------------------
      LOOP:  cpu time      4.6970: real time      4.6981

 eigenvalue-minimisations  :  7344
 total energy-change (2. order) :-0.1587859E-05  (-0.2898954E-07)
 number of electron      64.0000003 magnetization       0.9565738
 augmentation part       30.6813192 magnetization       0.6122080

 Broyden mixing:
  rms(total) = 0.12477E-03    rms(broyden)= 0.12124E-03
  rms(prec ) = 0.12343E-03
  weight for this iteration     100.00

 eigenvalues of (default mixing * dielectric matrix)
  average eigenvalue GAMMA=   1.4695
  3.8376  2.6143  2.4716  1.0699  0.9788  0.9788  0.8090  0.6830  0.6326  0.6193

 Free energy of the ion-electron system (eV)
  ---------------------------------------------------
  alpha Z        PSCENC =       542.73305656
  Ewald energy   TEWEN  =     -8629.09612564
  -Hartree energ DENC   =     -2153.98685804
  -exchange      EXHF   =         0.00000000
  -V(xc)+E(xc)   XCENC  =       328.11768987
  PAW double counting   =      9583.91541187    -9478.84725271
  entropy T*S    EENTRO =        -0.00013043
  eigenvalues    EBANDS =      -699.79250693
  atomic energy  EATOM  =     10486.13565542
  Solvation  Ediel_sol  =         0.00000000
  ---------------------------------------------------
  free energy    TOTEN  =       -20.82106002 eV

  energy without entropy =      -20.82092959  energy(sigma->0) =      -20.82101654


--------------------------------------------------------------------------------------------------------




--------------------------------------- Iteration      1(  16)  ---------------------------------------


    POTLOK:  cpu time      0.0331: real time      0.0332
    SETDIJ:  cpu time      0.6974: real time      0.6974
     EDDAV:  cpu time      3.3332: real time      3.3337
       DOS:  cpu time      0.0012: real time      0.0012
    --------------------------------------------
      LOOP:  cpu time      4.0649: real time      4.0655

 eigenvalue-minimisations  :  7248
 total energy-change (2. order) :-0.1663557E-06  (-0.4683916E-08)
 number of electron      64.0000003 magnetization       0.9565738
 augmentation part       30.6813192 magnetization       0.6122080

 Free energy of the ion-electron system (eV)
  ---------------------------------------------------
  alpha Z        PSCENC =       542.73305656
  Ewald energy   TEWEN  =     -8629.09612564
  -Hartree energ DENC   =     -2153.98556599
  -exchange      EXHF   =         0.00000000
  -V(xc)+E(xc)   XCENC  =       328.11758655
  PAW double counting   =      9583.88602077    -9478.81966517
  entropy T*S    EENTRO =        -0.00012755
  eigenvalues    EBANDS =      -699.79189514
  atomic energy  EATOM  =     10486.13565542
  Solvation  Ediel_sol  =         0.00000000
  ---------------------------------------------------
  free energy    TOTEN  =       -20.82106019 eV

  energy without entropy =      -20.82093263  energy(sigma->0) =      -20.82101767


--------------------------------------------------------------------------------------------------------




 average (electrostatic) potential at core
  the test charge radii are     1.0504
  (the norm of the test charge is              1.0000)
       1 -74.5983       2 -74.5983       3 -74.5983       4 -74.5983
 
 
 
 E-fermi :   9.3387     XC(G=0): -13.2455     alpha+bet :-16.2254

 val. band max:        9.3386565852   @ k =   0.4167   0.0833   0.0833
 cond. band min:       9.3392431712   @ k =   0.5000   0.5000   0.4167
 fundamental gap:      0.0005865860
 Fermi energy:         9.3387217080

 spin component 1

 k-point     1 :       0.0000    0.0000    0.0000
  band No.  band energies     occupation 
      1     -40.7571      1.00000
      2     -40.7571      1.00000
      3     -40.7571      1.00000
      4     -40.5386      1.00000
      5     -40.5386      1.00000
      6     -40.5386      1.00000
      7     -40.5386      1.00000
      8     -40.5386      1.00000
      9     -40.5386      1.00000
     10     -40.3964      1.00000
     11     -40.3964      1.00000
     12     -40.3964      1.00000
     13       2.2978      1.00000
     14       4.0294      1.00000
     15       4.0294      1.00000
     16       4.0294      1.00000
     17       4.2771      1.00000
     18       4.2771      1.00000
     19       4.2771      1.00000
     20       6.4642      1.00000
     21       6.4642      1.00000
     22       6.4642      1.00000
     23       8.0491      1.00000
     24       8.0491      1.00000
     25       9.1855      1.02620
     26       9.1855      1.02620
     27       9.1855      1.02620
     28       9.4845     -0.02948
     29       9.4845     -0.02948
     30       9.4845     -0.02948
     31       9.4845     -0.02948
     32       9.4845     -0.02948
     33       9.4845     -0.02948
     34      12.6567      0.00000
     35      12.6567      0.00000
     36      12.6567      0.00000
     37      19.8437      0.00000
     38      19.8437      0.00000
     39      19.8437      0.00000
     40      22.4159      0.00000

 k-point     2 :       0.0833    0.0000    0.0000
  band No.  band energies     occupation 
      1     -40.7538      1.00000
      2     -40.7538      1.00000
      3     -40.7517      1.00000
      4     -40.5432      1.00000
      5     -40.5432      1.00000
      6     -40.5397      1.00000
      7     -40.5397      1.00000
      8     -40.5365      1.00000
      9     -40.5365      1.00000
     10     -40.4024      1.00000
     11     -40.3988      1.00000
     12     -40.3988      1.00000
     13       2.3814      1.00000
     14       4.0686      1.00000
     15       4.0824      1.00000
     16       4.0824      1.00000
     17       4.3083      1.00000
     18       4.3242      1.00000
     19       4.3242      1.00000
     20       6.4192      1.00000
     21       6.5014      1.00000
     22       6.5014      1.00000
     23       8.0028      1.00000
     24       8.0669      1.00000
     25       9.1210      1.00433
     26       9.1210      1.00433
     27       9.1644      1.01671
     28       9.2079      1.03450
     29       9.2079      1.03450
     30       9.4079      0.04304
     31       9.4079      0.04304
     32       9.4845     -0.02950
     33       9.4845     -0.02950
     34      12.2421      0.00000
     35      12.9908      0.00000
     36      12.9908      0.00000
     37      19.8261      0.00000
     38      19.8261      0.00000
     39      20.3597      0.00000
     40      22.2470      0.00000

 k-point     3 :       0.1667    0.0000    0.0000
  band No.  band energies     occupation 
      1     -40.7432      1.00000
      2     -40.7432      1.00000
      3     -40.7347      1.00000
      4     -40.5542      1.00000
      5     -40.5542      1.00000
      6     -40.5406      1.00000
      7     -40.5406      1.00000
      8     -40.5302      1.00000
      9     -40.5302      1.00000
     10     -40.4213      1.00000
     11     -40.4060      1.00000
     12     -40.4060      1.00000
     13       2.6275      1.00000
     14       4.1800      1.00000
     15       4.2356      1.00000
     16       4.2356      1.00000
     17       4.4012      1.00000
     18       4.4667      1.00000
     19       4.4667      1.00000
     20       6.2894      1.00000
     21       6.6120      1.00000
     22       6.6120      1.00000
     23       7.8708      1.00000
     24       8.1195      1.00000
     25       8.5914      1.00000
     26       8.5914      1.00000
     27       8.9371      1.00000
     28       8.9371      1.00000
     29       9.1023      1.00208
     30       9.1926      1.02934
     31       9.1926      1.02934
     32       9.4848     -0.02936
     33       9.4848     -0.02936
     34      11.2612     -0.00000
     35      13.7786      0.00000
     36      13.7786      0.00000
[...]
     38      17.2366      0.00000
     39      17.2366      0.00000
     40      17.2366      0.00000

 k-point    81 :       0.4167    0.4167    0.4167
  band No.  band energies     occupation 
      1     -40.5592      1.00000
      2     -40.5592      1.00000
      3     -40.5592      1.00000
      4     -40.5448      1.00000
      5     -40.2571      1.00000
      6     -40.2571      1.00000
      7     -40.2571      1.00000
      8     -40.2473      1.00000
      9     -40.2473      1.00000
     10     -40.2473      1.00000
     11     -40.2376      1.00000
     12     -40.2376      1.00000
     13       4.2621      1.00000
     14       4.3887      1.00000
     15       4.3887      1.00000
     16       4.3887      1.00000
     17       6.4647      1.00000
     18       6.4647      1.00000
     19       6.4647      1.00000
     20       6.6512      1.00000
     21       6.6512      1.00000
     22       6.7473      1.00000
     23       6.7473      1.00000
     24       6.7473      1.00000
     25       8.4251      1.00000
     26       8.4251      1.00000
     27       8.4251      1.00000
     28       9.2254      1.03400
     29       9.2254      1.03400
     30       9.3580      0.34006
     31       9.4050      0.05371
     32       9.4050      0.05371
     33       9.4050      0.05371
     34      11.3174     -0.00000
     35      11.3174     -0.00000
     36      11.3174     -0.00000
     37      16.7161      0.00000
     38      16.7161      0.00000
     39      16.7161      0.00000
     40      17.8934      0.00000

 k-point    82 :       0.5000    0.4167    0.4167
  band No.  band energies     occupation 
      1     -40.5640      1.00000
      2     -40.5640      1.00000
      3     -40.5569      1.00000
      4     -40.5569      1.00000
      5     -40.2548      1.00000
      6     -40.2548      1.00000
      7     -40.2451      1.00000
      8     -40.2451      1.00000
      9     -40.2426      1.00000
     10     -40.2426      1.00000
     11     -40.2424      1.00000
     12     -40.2424      1.00000
     13       4.2828      1.00000
     14       4.2828      1.00000
     15       4.3455      1.00000
     16       4.3455      1.00000
     17       6.4940      1.00000
     18       6.4940      1.00000
     19       6.5809      1.00000
     20       6.5809      1.00000
     21       6.6619      1.00000
     22       6.6619      1.00000
     23       6.7001      1.00000
     24       6.7001      1.00000
     25       8.6481      1.00000
     26       8.6481      1.00000
     27       8.8594      1.00000
     28       8.8594      1.00000
     29       9.3667      0.27301
     30       9.3667      0.27301
     31       9.3740      0.22076
     32       9.3740      0.22076
     33      10.3053     -0.00000
     34      10.3053     -0.00000
     35      11.2622     -0.00000
     36      11.2622     -0.00000
     37      16.5351      0.00000
     38      16.5351      0.00000
     39      17.2019      0.00000
     40      17.2019      0.00000

 k-point    83 :       0.5000    0.5000    0.4167
  band No.  band energies     occupation 
      1     -40.5652      1.00000
      2     -40.5652      1.00000
      3     -40.5652      1.00000
      4     -40.5652      1.00000
      5     -40.2463      1.00000
      6     -40.2463      1.00000
      7     -40.2463      1.00000
      8     -40.2463      1.00000
      9     -40.2413      1.00000
     10     -40.2413      1.00000
     11     -40.2413      1.00000
     12     -40.2413      1.00000
     13       4.2686      1.00000
     14       4.2686      1.00000
     15       4.2686      1.00000
     16       4.2686      1.00000
     17       6.5706      1.00000
     18       6.5706      1.00000
     19       6.5706      1.00000
     20       6.5706      1.00000
     21       6.6326      1.00000
     22       6.6326      1.00000
     23       6.6326      1.00000
     24       6.6326      1.00000
     25       9.0346      1.00007
     26       9.0346      1.00007
     27       9.0346      1.00007
     28       9.0346      1.00007
     29       9.3392      0.49559
     30       9.3392      0.49559
     31       9.3392      0.49559
     32       9.3392      0.49559
     33      10.6405     -0.00000
     34      10.6405     -0.00000
     35      10.6405     -0.00000
     36      10.6405     -0.00000
     37      16.7173      0.00000
     38      16.7173      0.00000
     39      16.7173      0.00000
     40      16.7173      0.00000

 k-point    84 :       0.5000    0.5000    0.5000
  band No.  band energies     occupation 
      1     -40.5705      1.00000
      2     -40.5705      1.00000
      3     -40.5705      1.00000
      4     -40.5705      1.00000
      5     -40.2414      1.00000
      6     -40.2414      1.00000
      7     -40.2414      1.00000
      8     -40.2414      1.00000
      9     -40.2414      1.00000
     10     -40.2414      1.00000
     11     -40.2414      1.00000
     12     -40.2414      1.00000
     13       4.2209      1.00000
     14       4.2209      1.00000
     15       4.2209      1.00000
     16       4.2209      1.00000
     17       6.5943      1.00000
     18       6.5943      1.00000
     19       6.5943      1.00000
     20       6.5943      1.00000
     21       6.5943      1.00000
     22       6.5943      1.00000
     23       6.5943      1.00000
     24       6.5943      1.00000
     25       9.3938      0.10346
     26       9.3938      0.10346
     27       9.3938      0.10346
     28       9.3938      0.10346
     29       9.3938      0.10346
     30       9.3938      0.10346
     31       9.3938      0.10346
     32       9.3938      0.10346
     33      10.3580     -0.00000
     34      10.3580     -0.00000
     35      10.3580     -0.00000
     36      10.3580     -0.00000
     37      16.5428      0.00000
     38      16.5428      0.00000
     39      16.5428      0.00000
     40      16.5428      0.00000


--------------------------------------------------------------------------------------------------------


 soft charge-density along one line, spin component            1
         0         1         2         3         4         5         6         7         8         9
 total charge-density along one line
 
 soft charge-density along one line, spin component            2
         0         1         2         3         4         5         6         7         8         9
 total charge-density along one line
 
 pseudopotential strength for first ion, spin component:            1
-37.304  -0.000   0.000   8.282   0.000  -0.000  -0.000  -0.000
 -0.000 -37.304  -0.000   0.000   8.282   0.000   0.000  -0.000
  0.000  -0.000 -37.304  -0.000   0.000   8.282  -0.000   0.000
  8.282   0.000  -0.000   7.865  -0.000   0.000   0.000   0.000
  0.000   8.282   0.000  -0.000   7.865  -0.000  -0.000   0.000
 -0.000   0.000   8.282   0.000  -0.000   7.865   0.000  -0.000
 -0.000   0.000  -0.000   0.000  -0.000   0.000  -2.359  -0.000
 -0.000  -0.000   0.000   0.000   0.000  -0.000  -0.000  -2.359
  0.000  -0.000   0.000  -0.000   0.000  -0.000  -0.000   0.000
  0.000  -0.000  -0.000  -0.000   0.000   0.000  -0.000  -0.000
  0.000  -0.000  -0.000  -0.000   0.000  -0.000  -0.000   0.000
 -0.000   0.000  -0.000   0.000  -0.000   0.000  -2.016  -0.000
 -0.000  -0.000   0.000   0.000   0.000  -0.000  -0.000  -2.016
  0.000  -0.000   0.000  -0.000   0.000  -0.000  -0.000   0.000
  0.000  -0.000  -0.000  -0.000   0.000   0.000  -0.000  -0.000
  0.000  -0.000   0.000  -0.000   0.000  -0.000  -0.000   0.000
  0.000   0.000   0.000   0.000   0.000   0.000  -0.000   0.000
  0.000   0.000   0.000   0.000   0.000   0.000  -0.000   0.000
 pseudopotential strength for first ion, spin component:            2
-37.190  -0.000   0.000   8.222   0.000  -0.000  -0.000  -0.000
 -0.000 -37.190  -0.000   0.000   8.222   0.000   0.000  -0.000
  0.000  -0.000 -37.190  -0.000   0.000   8.222  -0.000   0.000
  8.222   0.000  -0.000   7.880  -0.000   0.000   0.000   0.000
  0.000   8.222   0.000  -0.000   7.880  -0.000   0.000   0.000
 -0.000   0.000   8.222   0.000  -0.000   7.880   0.000   0.000
 -0.000   0.000  -0.000   0.000   0.000   0.000  -2.236  -0.000
 -0.000  -0.000   0.000   0.000   0.000   0.000  -0.000  -2.236
  0.000  -0.000   0.000  -0.000   0.000  -0.000  -0.000   0.000
  0.000  -0.000  -0.000   0.000   0.000   0.000  -0.000  -0.000
  0.000  -0.000  -0.000  -0.000   0.000  -0.000  -0.000   0.000
 -0.000   0.000  -0.000   0.000   0.000   0.000  -1.879  -0.000
 -0.000  -0.000   0.000   0.000   0.000   0.000  -0.000  -1.879
  0.000  -0.000   0.000  -0.000   0.000  -0.000  -0.000   0.000
  0.000  -0.000  -0.000   0.000   0.000   0.000  -0.000  -0.000
  0.000  -0.000  -0.000  -0.000   0.000  -0.000  -0.000   0.000
  0.000   0.000   0.000   0.000   0.000   0.000  -0.000   0.000
  0.000   0.000   0.000   0.000   0.000   0.000  -0.000   0.000
 total augmentation occupancy for first ion, spin component:            1
  1.998   0.000   0.000  -0.013  -0.000  -0.000  -0.000  -0.000   0.000   0.000   0.000   0.000   0.000  -0.000   0.000  -0.000
  0.000   1.998   0.000  -0.000  -0.013  -0.000  -0.000   0.000   0.000   0.000   0.000  -0.000   0.000  -0.000  -0.000  -0.000
  0.000   0.000   1.998  -0.000  -0.000  -0.013   0.000   0.000   0.000   0.000   0.000   0.000   0.000  -0.000   0.000  -0.000
 -0.013  -0.000  -0.000   0.104   0.000   0.000   0.000  -0.000  -0.000   0.000   0.000   0.000  -0.000  -0.000  -0.000   0.000
 -0.000  -0.013  -0.000   0.000   0.104   0.000   0.000   0.000  -0.000   0.000  -0.000   0.000   0.000  -0.000  -0.000  -0.000
 -0.000  -0.000  -0.013   0.000   0.000   0.104   0.000  -0.000   0.000   0.000   0.000   0.000  -0.000   0.000   0.000   0.000
 -0.000  -0.000   0.000   0.000   0.000   0.000   2.759   0.000  -0.000   0.000   0.000  -0.738  -0.000   0.000  -0.000  -0.000
 -0.000   0.000   0.000  -0.000   0.000  -0.000   0.000   2.759   0.000   0.000  -0.000  -0.000  -0.738  -0.000  -0.000   0.000
  0.000   0.000  -0.000   0.000  -0.000  -0.000  -0.000   0.000   2.531   0.000   0.000   0.000  -0.000  -0.546  -0.000  -0.000
  0.000   0.000   0.000   0.000   0.000   0.000   0.000   0.000   0.000   2.759   0.000  -0.000  -0.000  -0.000  -0.738  -0.000
  0.000   0.000   0.000   0.000  -0.000   0.000   0.000  -0.000   0.000   0.000   2.531  -0.000   0.000  -0.000  -0.000  -0.546
  0.000  -0.000   0.000   0.000   0.000   0.000  -0.738  -0.000   0.000  -0.000  -0.000   0.472   0.000  -0.000   0.000   0.000
  0.000   0.000   0.000  -0.000   0.000  -0.000  -0.000  -0.738  -0.000  -0.000   0.000   0.000   0.472   0.000   0.000  -0.000
  0.000  -0.000   0.000   0.000   0.000  -0.000   0.000  -0.000  -0.546  -0.000  -0.000  -0.000   0.000   0.427   0.000   0.000
  0.000  -0.000   0.000  -0.000  -0.000   0.000  -0.000  -0.000  -0.000  -0.738  -0.000   0.000   0.000   0.000   0.472   0.000
  0.000  -0.000  -0.000   0.000  -0.000   0.000  -0.000   0.000  -0.000  -0.000  -0.546   0.000  -0.000   0.000   0.000   0.427
  0.000   0.000  -0.000  -0.000   0.000  -0.000   0.000   0.000   0.000  -0.000   0.000   0.000  -0.000   0.000  -0.000  -0.000
  0.000   0.000   0.000   0.000   0.000  -0.000   0.000  -0.000   0.000  -0.000  -0.000  -0.000  -0.000   0.000   0.000   0.000
 total augmentation occupancy for first ion, spin component:            2
  0.000   0.000   0.000   0.000   0.000   0.000  -0.000  -0.000   0.000  -0.000   0.000  -0.000  -0.000  -0.000  -0.000   0.000
  0.000   0.000   0.000   0.000   0.000  -0.000  -0.000  -0.000   0.000   0.000   0.000   0.000  -0.000  -0.000   0.000   0.000
  0.000   0.000   0.000   0.000  -0.000   0.000   0.000  -0.000   0.000  -0.000   0.000   0.000  -0.000  -0.000  -0.000  -0.000
  0.000   0.000   0.000  -0.002  -0.000  -0.000  -0.000   0.000   0.000   0.000   0.000  -0.000   0.000  -0.000  -0.000   0.000
  0.000   0.000  -0.000  -0.000  -0.002  -0.000  -0.000   0.000   0.000   0.000  -0.000   0.000   0.000   0.000   0.000   0.000
  0.000  -0.000   0.000  -0.000  -0.000  -0.002   0.000   0.000   0.000  -0.000   0.000   0.000  -0.000   0.000   0.000   0.000
 -0.000  -0.000   0.000  -0.000  -0.000   0.000  -0.038  -0.000   0.000  -0.000  -0.000   0.041   0.000  -0.000   0.000   0.000
 -0.000  -0.000  -0.000   0.000   0.000   0.000  -0.000  -0.038  -0.000  -0.000   0.000   0.000   0.041   0.000   0.000  -0.000
  0.000  -0.000   0.000  -0.000   0.000   0.000   0.000  -0.000  -0.029  -0.000  -0.000  -0.000   0.000   0.024   0.000   0.000
 -0.000   0.000  -0.000   0.000   0.000  -0.000  -0.000  -0.000  -0.000  -0.038  -0.000   0.000   0.000   0.000   0.041   0.000
  0.000   0.000   0.000   0.000   0.000  -0.000  -0.000   0.000  -0.000  -0.000  -0.029   0.000  -0.000   0.000   0.000   0.024
 -0.000   0.000   0.000  -0.000   0.000   0.000   0.041   0.000  -0.000   0.000   0.000   0.025   0.000  -0.000   0.000   0.000
 -0.000  -0.000  -0.000   0.000   0.000  -0.000   0.000   0.041   0.000   0.000  -0.000   0.000   0.025   0.000   0.000  -0.000
  0.000  -0.000  -0.000  -0.000  -0.000   0.000  -0.000   0.000   0.024   0.000   0.000  -0.000   0.000   0.008   0.000   0.000
 -0.000   0.000  -0.000  -0.000   0.000   0.000   0.000   0.000   0.000   0.041   0.000   0.000   0.000   0.000   0.025   0.000
  0.000   0.000   0.000   0.000   0.000   0.000   0.000  -0.000   0.000   0.000   0.024   0.000   0.000   0.000   0.000   0.008
  0.000   0.000  -0.000  -0.000   0.000   0.000  -0.000  -0.000  -0.000  -0.000  -0.000   0.000  -0.000   0.000   0.000   0.000
 -0.000  -0.000   0.000  -0.000  -0.000  -0.000   0.000   0.000   0.000   0.000   0.000  -0.000   0.000   0.000   0.000  -0.000


------------------------ aborting loop because EDIFF is reached ----------------------------------------





 total charge

# of ion       s       p       d       tot
------------------------------------------
    1        0.315   6.173   7.978  14.466
    2        0.315   6.173   7.978  14.466
    3        0.315   6.173   7.978  14.466
    4        0.315   6.173   7.978  14.466
--------------------------------------------------
tot          1.260  24.693  31.912  57.864



 magnetization (x)

# of ion       s       p       d       tot
------------------------------------------
    1       -0.002  -0.003   0.254   0.249
    2       -0.002  -0.003   0.254   0.249
    3       -0.002  -0.003   0.254   0.249
    4       -0.002  -0.003   0.254   0.249
--------------------------------------------------
tot         -0.007  -0.012   1.015   0.996
 
    CHARGE:  cpu time      0.5241: real time      0.5241
    FORLOC:  cpu time      0.0006: real time      0.0006
    FORNL :  cpu time      0.6555: real time      0.6556
    FORCOR:  cpu time      0.4356: real time      0.4735
    FORHAR:  cpu time      0.0037: real time      0.0037
    MIXING:  cpu time      0.0012: real time      0.0012
    OFIELD:  cpu time      0.0000: real time      0.0000

 ---------------------------------------------------------------------------------------------

         DFTD3 V3.0 Rev 1        
 DF pbe       
 parameters
 k1-k3        =   16.0000    1.3333   -4.0000
 Edisp (eV)   -2.62093

 E6    (eV) :    -1.4629
 E8    (eV) :    -1.1581
 % E8        : 44.19
    FORVDW:  cpu time      0.0072: real time      0.0072

 VOLUME and BASIS-vectors are now :
 -----------------------------------------------------------------------------
  energy-cutoff  :      400.00
  volume of cell :       60.11
      direct lattice vectors                 reciprocal lattice vectors
     3.917301575  0.000000000  0.000000000     0.255277767 -0.000000000  0.000000000
     0.000000000  3.917301575  0.000000000     0.000000000  0.255277767  0.000000000
     0.000000000  0.000000000  3.917301575    -0.000000000 -0.000000000  0.255277767

  length of vectors
     3.917301575  3.917301575  3.917301575     0.255277767  0.255277767  0.255277767


 FORCES acting on ions
    electron-ion (+dipol)            ewald-force                    non-local-force                 convergence-correction
 -----------------------------------------------------------------------------------------------
   -.146E-13 -.686E-13 -.122E-12   -.366E-13 -.348E-13 0.417E-14   0.482E-25 0.258E-25 -.258E-25   -.212E-13 -.209E-13 -.387E-13
   -.715E-14 0.850E-12 0.779E-12   -.388E-13 0.552E-14 0.106E-13   0.517E-25 0.168E-24 -.517E-25   -.263E-13 -.565E-13 0.194E-13
   0.888E-12 -.688E-13 0.150E-10   0.424E-13 -.761E-14 0.104E-13   -.588E-25 0.000E+00 -.517E-25   -.183E-12 0.630E-14 0.280E-13
   0.891E-12 0.696E-11 0.443E-11   0.402E-13 0.327E-13 -.238E-13   0.497E-25 0.937E-25 0.775E-25   -.192E-12 -.162E-13 -.366E-13
 -----------------------------------------------------------------------------------------------
   0.176E-11 0.768E-11 0.201E-10   0.725E-14 -.417E-14 0.136E-14   0.908E-25 0.288E-24 -.517E-25   -.422E-12 -.873E-13 -.278E-13
 
 
 POSITION                                       TOTAL-FORCE (eV/Angst)
 -----------------------------------------------------------------------------------
      0.00000      0.00000      0.00000        -0.000000      0.000000      0.000000
      0.00000      1.95865      1.95865        -0.000000      0.000000     -0.000000
      1.95865      0.00000      1.95865        -0.000000     -0.000000     -0.000000
      1.95865      1.95865      0.00000         0.000000     -0.000000      0.000000
 -----------------------------------------------------------------------------------
    total drift:                                0.000000      0.000000      0.000000


--------------------------------------------------------------------------------------------------------



  FREE ENERGIE OF THE ION-ELECTRON SYSTEM (eV)
  ---------------------------------------------------
  free  energy   TOTEN  =       -23.44198548 eV

  energy  without entropy=      -23.44185793  energy(sigma->0) =      -23.44194296
 


--------------------------------------------------------------------------------------------------------


    POTLOK:  cpu time      0.4387: real time      0.4868


--------------------------------------------------------------------------------------------------------


     LOOP+:  cpu time     94.0491: real time     96.2338
    4ORBIT:  cpu time      0.0000: real time      0.0000



 total charge

# of ion       s       p       d       tot
------------------------------------------
    1        0.315   6.173   7.978  14.466
    2        0.315   6.173   7.978  14.466
    3        0.315   6.173   7.978  14.466
    4        0.315   6.173   7.978  14.466
--------------------------------------------------
tot          1.260  24.693  31.912  57.864



 magnetization (x)

# of ion       s       p       d       tot
------------------------------------------
    1       -0.002  -0.003   0.254   0.249
    2       -0.002  -0.003   0.254   0.249
    3       -0.002  -0.003   0.254   0.249
    4       -0.002  -0.003   0.254   0.249
--------------------------------------------------
tot         -0.007  -0.012   1.015   0.996
 

 total amount of memory used by VASP MPI-rank0    86956. kBytes
=======================================================================

   base      :      30000. kBytes
   nonl-proj :      13473. kBytes
   fftplans  :       6611. kBytes
   grid      :       5030. kBytes
   one-center:        124. kBytes
   wavefun   :      31718. kBytes
 
  
  
 General timing and accounting informations for this job:
 ========================================================
  
                  Total CPU time used (sec):       98.235
                            User time (sec):       97.058
                          System time (sec):        1.177
                         Elapsed time (sec):      101.398
  
                   Maximum memory used (kb):      375832.
                   Average memory used (kb):          N/A
  
                          Minor page faults:       363165
                          Major page faults:            5
                 Voluntary context switches:          160
