117
Lattice="12.303473692417112 0.0 0.0 0.0 12.303473692417114 0.0 0.0 0.0 29.165420746594243" Properties=species:S:1:pos:R:3:move_mask:L:1:momenta:R:3 adsorbate_info="_JSON {\"site\": {\"coordinates\": [7.493838201809808, 8.330332810619069, 10.170367006449425], \"connectivity\": 3, \"topology\": [4, 6, 102], \"n_vector\": [-0.11818710107334006, 0.3520368589879057, 0.9284944044278401], \"h_vector\": [-0.01329248320489807, -0.9283399867669688, 0.3714945206322046], \"site_formula\": {\"O\": 2, \"Pd\": 1}}, \"smiles\": \"ClOC\", \"mdf\": 2.2366431808807627, \"adsorbate_formula\": \"CH3O\"}" mace_E=-585.5620428680546 converged=T n_steps=76 d_min=2.120794652200684 site_type=unknown dE_rel_meV=0 original_idx=294 rank=7 E_MACE=-585.8947999328839 pbc="T T T"
O        8.49500189      11.64543565       9.36472875  T       0.00000000       0.00000000       0.00000000
O       11.50692548       5.41494984       9.37387367  T       0.00000000       0.00000000       0.00000000
O       11.57533108       1.67519866      10.59977824  T       0.00000000       0.00000000       0.00000000
O       11.51423524      11.59670905       9.37315998  T       0.00000000       0.00000000       0.00000000
O        8.45997318       7.86300610      10.51345433  T       0.00000000       0.00000000       0.00000000
O        5.36644036      11.60533972       9.33063451  T       0.00000000       0.00000000       0.00000000
O        5.40358996       7.79852796      10.57818665  T       0.00000000       0.00000000       0.00000000
O        8.47548466       5.46952143       9.34551030  T       0.00000000       0.00000000       0.00000000
O       11.55611011       7.83448157      10.54162755  T       0.00000000       0.00000000       0.00000000
O        2.32336904       5.47003228       9.34864826  T       0.00000000       0.00000000       0.00000000
O        2.30453783       1.71587185      10.55791426  T       0.00000000       0.00000000       0.00000000
O        2.34181598      11.64143506       9.36024008  T       0.00000000       0.00000000       0.00000000
O        5.35636791       5.42557505       9.36386382  T       0.00000000       0.00000000       0.00000000
O        5.41658580       1.69001587      10.58142801  T       0.00000000       0.00000000       0.00000000
O        2.28314397       7.86485192      10.50868324  T       0.00000000       0.00000000       0.00000000
O        8.46318473       1.71719924      10.57227328  T       0.00000000       0.00000000       0.00000000
Pd       5.53656316       9.22760527       1.50000000  F       0.00000000       0.00000000       0.00000000
Pd       6.10821695       7.45879993       7.37776063  T       0.00000000       0.00000000       0.00000000
Pd       4.28815433       6.78245218       5.40241719  F       0.00000000       0.00000000       0.00000000
Pd       6.15173685       7.38208422       3.44535000  F       0.00000000       0.00000000       0.00000000
Pd       7.33284605       3.64951857       7.35767389  T       0.00000000       0.00000000       0.00000000
Pd       5.51948843       3.08419342       5.37702261  F       0.00000000       0.00000000       0.00000000
Pd       6.76691053       5.53656316       1.50000000  F       0.00000000       0.00000000       0.00000000
Pd       7.38208422       9.84277895       3.44535000  F       0.00000000       0.00000000       0.00000000
Pd       7.99725790       7.99725790       1.50000000  F       0.00000000       0.00000000       0.00000000
Pd       5.51951598       9.23590192       5.37700272  F       0.00000000       0.00000000       0.00000000
Pd       8.00616182       7.98477587       5.40628129  F       0.00000000       0.00000000       0.00000000
Pd       6.76691053      11.68830001       1.50000000  F       0.00000000       0.00000000       0.00000000
Pd       8.61243158       0.00000000       3.44535000  F       0.00000000       0.00000000       0.00000000
Pd       6.75606179      11.70364973       5.37992114  F       0.00000000       0.00000000       0.00000000
Pd       8.55289458      -0.00953997       7.40718245  T       0.00000000       0.00000000       0.00000000
Pd       9.84277895       8.61243158       3.44535000  F       0.00000000       0.00000000       0.00000000
Pd       7.38208422       3.69104211       3.44535000  F       0.00000000       0.00000000       0.00000000
Pd       3.69104211       8.61243158       3.44535000  F       0.00000000       0.00000000       0.00000000
Pd       9.82340893       8.62865546       7.50107585  T       0.00000000       0.00000000       0.00000000
Pd       9.22760527      10.45795264       1.50000000  F       0.00000000       0.00000000       0.00000000
Pd       7.31870680       9.80602256       7.37308446  T       0.00000000       0.00000000       0.00000000
Pd       1.84552105       7.99725790       1.50000000  F       0.00000000       0.00000000       0.00000000
Pd      11.68830001       9.22760527       1.50000000  F       0.00000000       0.00000000       0.00000000
Pd       0.60431863      11.70356305       5.37989931  F       0.00000000       0.00000000       0.00000000
Pd       8.61243158       6.15173685       3.44535000  F       0.00000000       0.00000000       0.00000000
Pd       6.75605293       5.55187564       5.37990856  F       0.00000000       0.00000000       0.00000000
Pd       8.56060103       6.14532203       7.40024978  T       0.00000000       0.00000000       0.00000000
Pd       7.99725790       1.84552105       1.50000000  F       0.00000000       0.00000000       0.00000000
Pd       9.84277895       2.46069474       3.44535000  F       0.00000000       0.00000000       0.00000000
Pd       8.00617313       1.83308050       5.40627808  F       0.00000000       0.00000000       0.00000000
Pd       9.82265365       2.46448231       7.51044440  T       0.00000000       0.00000000       0.00000000
Pd       9.22760527       4.30621579       1.50000000  F       0.00000000       0.00000000       0.00000000
Pd       4.92138948       4.92138948       3.44535000  F       0.00000000       0.00000000       0.00000000
Pd       9.22722207       4.29761474       5.41287912  F       0.00000000       0.00000000       0.00000000
Pd       4.93038757       4.96473284       7.39418672  T       0.00000000       0.00000000       0.00000000
Pd      10.45795264       6.76691053       1.50000000  F       0.00000000       0.00000000       0.00000000
Pd       0.00000000       7.38208422       3.44535000  F       0.00000000       0.00000000       0.00000000
Pd      10.43991375       6.78245558       5.40242713  F       0.00000000       0.00000000       0.00000000
Pd      12.26482190       7.45423067       7.38253624  T       0.00000000       0.00000000       0.00000000
Pd       4.92138948      11.07312632       3.44535000  F       0.00000000       0.00000000       0.00000000
Pd       1.23034737       9.84277895       3.44535000  F       0.00000000       0.00000000       0.00000000
Pd      11.67120661       9.23591801       5.37701028  F       0.00000000       0.00000000       0.00000000
Pd       1.17814863       9.80748814       7.35507033  T       0.00000000       0.00000000       0.00000000
Pd       0.61517368      11.68830001       1.50000000  F       0.00000000       0.00000000       0.00000000
Pd       2.46069474       0.00000000       3.44535000  F       0.00000000       0.00000000       0.00000000
Pd       2.40841280      -0.00882677       7.40584150  T       0.00000000       0.00000000       0.00000000
Pd       9.22719689      10.44932842       5.41286416  F       0.00000000       0.00000000       0.00000000
Pd       3.68174517       8.63304502       7.51549466  T       0.00000000       0.00000000       0.00000000
Pd       4.30621579       0.61517368       1.50000000  F       0.00000000       0.00000000       0.00000000
Pd      11.07312632       4.92138948       3.44535000  F       0.00000000       0.00000000       0.00000000
Pd       4.30621579       6.76691053       1.50000000  F       0.00000000       0.00000000       0.00000000
Pd       3.67027185       2.47228344       7.51160903  T       0.00000000       0.00000000       0.00000000
Pd       2.41282629       6.14834670       7.39714356  T       0.00000000       0.00000000       0.00000000
Pd       0.60433818       5.55187436       5.37993065  F       0.00000000       0.00000000       0.00000000
Pd       2.46069474       6.15173685       3.44535000  F       0.00000000       0.00000000       0.00000000
Pd       0.61517368       5.53656316       1.50000000  F       0.00000000       0.00000000       0.00000000
Pd       1.18145418       3.65722741       7.35908607  T       0.00000000       0.00000000       0.00000000
Pd      11.67123156       3.08419612       5.37703229  F       0.00000000       0.00000000       0.00000000
Pd       6.91662078       6.69446013       9.88507181  T       0.00000000       0.00000000       0.00000000
Pd       1.23034737       3.69104211       3.44535000  F       0.00000000       0.00000000       0.00000000
Pd      12.26642761       1.31386466       7.39413450  T       0.00000000       0.00000000       0.00000000
Pd      10.43990395       0.63072067       5.40242717  F       0.00000000       0.00000000       0.00000000
Pd       0.00000000       1.23034737       3.44535000  F       0.00000000       0.00000000       0.00000000
Pd       1.84552105       1.84552105       1.50000000  F       0.00000000       0.00000000       0.00000000
Pd      10.45795264       0.61517368       1.50000000  F       0.00000000       0.00000000       0.00000000
Pd      11.07617554      11.12875652       7.39711267  T       0.00000000       0.00000000       0.00000000
Pd       3.07550809      10.44932540       5.41290581  F       0.00000000       0.00000000       0.00000000
Pd       3.69104211       2.46069474       3.44535000  F       0.00000000       0.00000000       0.00000000
Pd       1.85442396       1.83305046       5.40626716  F       0.00000000       0.00000000       0.00000000
Pd      11.68830001       3.07586842       1.50000000  F       0.00000000       0.00000000       0.00000000
Pd       0.77943691       0.54337351       9.92180592  T       0.00000000       0.00000000       0.00000000
Pd       2.33644625       3.49647804       9.76698546  T       0.00000000       0.00000000       0.00000000
Pd       3.85485344       6.73194268       9.89059615  T       0.00000000       0.00000000       0.00000000
Pd       6.15173685       1.23034737       3.44535000  F       0.00000000       0.00000000       0.00000000
Pd       4.28818081       0.63072761       5.40241929  F       0.00000000       0.00000000       0.00000000
Pd       6.10553337       1.29994335       7.38233038  T       0.00000000       0.00000000       0.00000000
Pd       5.53656316       3.07586842       1.50000000  F       0.00000000       0.00000000       0.00000000
Pd       1.85444455       7.98478761       5.40627529  F       0.00000000       0.00000000       0.00000000
Pd       5.41349613       3.41448371       9.67703670  T       0.00000000       0.00000000       0.00000000
Pd       3.07586842      10.45795264       1.50000000  F       0.00000000       0.00000000       0.00000000
Pd       3.07586842       4.30621579       1.50000000  F       0.00000000       0.00000000       0.00000000
Pd       3.07547731       4.29761827       5.41291946  F       0.00000000       0.00000000       0.00000000
Pd      11.08304422       4.95558351       7.39947918  T       0.00000000       0.00000000       0.00000000
Pd      11.07312632      11.07312632       3.44535000  F       0.00000000       0.00000000       0.00000000
Pd      10.02174757       0.58426368       9.93585276  T       0.00000000       0.00000000       0.00000000
Pd       6.93195792       0.55459863       9.92037197  T       0.00000000       0.00000000       0.00000000
Pd       8.52126688       9.65929289       9.75276741  T       0.00000000       0.00000000       0.00000000
Pd       0.76316230       6.68373011       9.89796121  T       0.00000000       0.00000000       0.00000000
Pd       5.37551796       9.63475841       9.85493830  T       0.00000000       0.00000000       0.00000000
Pd      11.55927474       3.40749361       9.70318858  T       0.00000000       0.00000000       0.00000000
Pd       8.49416143       3.49505967       9.76901625  T       0.00000000       0.00000000       0.00000000
Pd      10.01132906       6.71961364       9.89457318  T       0.00000000       0.00000000       0.00000000
Pd       3.87012292       0.58522778       9.92661465  T       0.00000000       0.00000000       0.00000000
Pd       2.34084186       9.66321261       9.75729880  T       0.00000000       0.00000000       0.00000000
Pd       4.92916052      11.09621965       7.39935098  T       0.00000000       0.00000000       0.00000000
Pd      11.55537911       9.57834849       9.66808855  T       0.00000000       0.00000000       0.00000000
O        5.25485941      10.22828010      11.78528276  T       0.00000000       0.00000000       0.00000000
C        6.46283775      10.60350607      12.37734286  T       0.00000000       0.00000000       0.00000000
H        6.30347485      10.58473379      13.47544261  T       0.00000000       0.00000000       0.00000000
H        7.31439339       9.92222655      12.13751744  T       0.00000000       0.00000000       0.00000000
H        6.78011472      11.64547744      12.09266274  T       0.00000000       0.00000000       0.00000000
