117
Lattice="12.303473692417112 0.0 0.0 0.0 12.303473692417114 0.0 0.0 0.0 29.165420746594243" Properties=species:S:1:pos:R:3:move_mask:L:1:momenta:R:3 adsorbate_info="_JSON {\"site\": {\"coordinates\": [2.3786299299377682, 3.389712613987135, 9.694705800417717], \"connectivity\": 1, \"topology\": [87], \"n_vector\": [-0.0012951257030311945, 0.2300480728762212, 0.9731784044127522], \"h_vector\": [1.0, 0.0, 0.0], \"site_formula\": {\"Pd\": 1}}, \"smiles\": \"ClOC\", \"mdf\": 1.7097869690905088, \"adsorbate_formula\": \"CH3O\"}" mace_E=-585.6485690052634 converged=T n_steps=62 d_min=2.3152059344812304 site_type=unknown dE_rel_meV=0 original_idx=85 rank=493 E_MACE=-584.2706561766702 pbc="T T T"
O        8.44643975      11.57870693       9.36332477  T       0.00000000       0.00000000       0.00000000
O       11.47856276       5.36816341       9.37865160  T       0.00000000       0.00000000       0.00000000
O       11.52339422       1.61606612      10.58275881  T       0.00000000       0.00000000       0.00000000
O       11.47099569      11.53477447       9.36782442  T       0.00000000       0.00000000       0.00000000
O        8.41756309       7.80579382      10.53045803  T       0.00000000       0.00000000       0.00000000
O        5.33915266      11.52774838       9.36426860  T       0.00000000       0.00000000       0.00000000
O        5.37686448       7.77491673      10.55418910  T       0.00000000       0.00000000       0.00000000
O        8.44983038       5.41381782       9.35372239  T       0.00000000       0.00000000       0.00000000
O       11.52038261       7.78124688      10.55275015  T       0.00000000       0.00000000       0.00000000
O        2.29053974       5.43153459       9.30744999  T       0.00000000       0.00000000       0.00000000
O        2.27535347       1.61612577      10.55811292  T       0.00000000       0.00000000       0.00000000
O        2.29698988      11.56997861       9.33500167  T       0.00000000       0.00000000       0.00000000
O        5.32490126       5.36741145       9.38563851  T       0.00000000       0.00000000       0.00000000
O        5.37251158       1.61665374      10.58457748  T       0.00000000       0.00000000       0.00000000
O        2.26583354       7.81067040      10.51636091  T       0.00000000       0.00000000       0.00000000
O        8.41735015       1.65538630      10.56558924  T       0.00000000       0.00000000       0.00000000
Pd       5.53656316       9.22760527       1.50000000  F       0.00000000       0.00000000       0.00000000
Pd       6.11079734       7.45773582       7.39218881  T       0.00000000       0.00000000       0.00000000
Pd       4.28815433       6.78245218       5.40241719  F       0.00000000       0.00000000       0.00000000
Pd       6.15173685       7.38208422       3.44535000  F       0.00000000       0.00000000       0.00000000
Pd       7.33166508       3.65201629       7.35164258  T       0.00000000       0.00000000       0.00000000
Pd       5.51948843       3.08419342       5.37702261  F       0.00000000       0.00000000       0.00000000
Pd       6.76691053       5.53656316       1.50000000  F       0.00000000       0.00000000       0.00000000
Pd       7.38208422       9.84277895       3.44535000  F       0.00000000       0.00000000       0.00000000
Pd       7.99725790       7.99725790       1.50000000  F       0.00000000       0.00000000       0.00000000
Pd       5.51951598       9.23590192       5.37700272  F       0.00000000       0.00000000       0.00000000
Pd       8.00616182       7.98477587       5.40628129  F       0.00000000       0.00000000       0.00000000
Pd       6.76691053      11.68830001       1.50000000  F       0.00000000       0.00000000       0.00000000
Pd       8.61243158       0.00000000       3.44535000  F       0.00000000       0.00000000       0.00000000
Pd       6.75606179      11.70364973       5.37992114  F       0.00000000       0.00000000       0.00000000
Pd       8.54098915      -0.01096803       7.41377380  T       0.00000000       0.00000000       0.00000000
Pd       9.84277895       8.61243158       3.44535000  F       0.00000000       0.00000000       0.00000000
Pd       7.38208422       3.69104211       3.44535000  F       0.00000000       0.00000000       0.00000000
Pd       3.69104211       8.61243158       3.44535000  F       0.00000000       0.00000000       0.00000000
Pd       9.81514111       8.61560932       7.49834516  T       0.00000000       0.00000000       0.00000000
Pd       9.22760527      10.45795264       1.50000000  F       0.00000000       0.00000000       0.00000000
Pd       7.33357391       9.80375266       7.35066035  T       0.00000000       0.00000000       0.00000000
Pd       1.84552105       7.99725790       1.50000000  F       0.00000000       0.00000000       0.00000000
Pd      11.68830001       9.22760527       1.50000000  F       0.00000000       0.00000000       0.00000000
Pd       0.60431863      11.70356305       5.37989931  F       0.00000000       0.00000000       0.00000000
Pd       8.61243158       6.15173685       3.44535000  F       0.00000000       0.00000000       0.00000000
Pd       6.75605293       5.55187564       5.37990856  F       0.00000000       0.00000000       0.00000000
Pd       8.55722966       6.13619585       7.40755362  T       0.00000000       0.00000000       0.00000000
Pd       7.99725790       1.84552105       1.50000000  F       0.00000000       0.00000000       0.00000000
Pd       9.84277895       2.46069474       3.44535000  F       0.00000000       0.00000000       0.00000000
Pd       8.00617313       1.83308050       5.40627808  F       0.00000000       0.00000000       0.00000000
Pd       9.81354056       2.46201776       7.50915839  T       0.00000000       0.00000000       0.00000000
Pd       9.22760527       4.30621579       1.50000000  F       0.00000000       0.00000000       0.00000000
Pd       4.92138948       4.92138948       3.44535000  F       0.00000000       0.00000000       0.00000000
Pd       9.22722207       4.29761474       5.41287912  F       0.00000000       0.00000000       0.00000000
Pd       4.93633162       4.96011940       7.39948147  T       0.00000000       0.00000000       0.00000000
Pd      10.45795264       6.76691053       1.50000000  F       0.00000000       0.00000000       0.00000000
Pd       0.00000000       7.38208422       3.44535000  F       0.00000000       0.00000000       0.00000000
Pd      10.43991375       6.78245558       5.40242713  F       0.00000000       0.00000000       0.00000000
Pd      12.25938894       7.45207592       7.39109296  T       0.00000000       0.00000000       0.00000000
Pd       4.92138948      11.07312632       3.44535000  F       0.00000000       0.00000000       0.00000000
Pd       1.23034737       9.84277895       3.44535000  F       0.00000000       0.00000000       0.00000000
Pd      11.67120661       9.23591801       5.37701028  F       0.00000000       0.00000000       0.00000000
Pd       1.16811424       9.80452958       7.34937539  T       0.00000000       0.00000000       0.00000000
Pd       0.61517368      11.68830001       1.50000000  F       0.00000000       0.00000000       0.00000000
Pd       2.46069474       0.00000000       3.44535000  F       0.00000000       0.00000000       0.00000000
Pd       2.40298260      -0.00310982       7.39638542  T       0.00000000       0.00000000       0.00000000
Pd       9.22719689      10.44932842       5.41286416  F       0.00000000       0.00000000       0.00000000
Pd       3.66163567       8.61637281       7.50318101  T       0.00000000       0.00000000       0.00000000
Pd       4.30621579       0.61517368       1.50000000  F       0.00000000       0.00000000       0.00000000
Pd      11.07312632       4.92138948       3.44535000  F       0.00000000       0.00000000       0.00000000
Pd       4.30621579       6.76691053       1.50000000  F       0.00000000       0.00000000       0.00000000
Pd       3.64319931       2.48459996       7.53262423  T       0.00000000       0.00000000       0.00000000
Pd       2.41107233       6.14422149       7.38380404  T       0.00000000       0.00000000       0.00000000
Pd       0.60433818       5.55187436       5.37993065  F       0.00000000       0.00000000       0.00000000
Pd       2.46069474       6.15173685       3.44535000  F       0.00000000       0.00000000       0.00000000
Pd       0.61517368       5.53656316       1.50000000  F       0.00000000       0.00000000       0.00000000
Pd       1.19058396       3.65696852       7.37461968  T       0.00000000       0.00000000       0.00000000
Pd      11.67123156       3.08419612       5.37703229  F       0.00000000       0.00000000       0.00000000
Pd       6.88808169       6.62559104       9.91052700  T       0.00000000       0.00000000       0.00000000
Pd       1.23034737       3.69104211       3.44535000  F       0.00000000       0.00000000       0.00000000
Pd      12.25864889       1.31083872       7.38865630  T       0.00000000       0.00000000       0.00000000
Pd      10.43990395       0.63072067       5.40242717  F       0.00000000       0.00000000       0.00000000
Pd       0.00000000       1.23034737       3.44535000  F       0.00000000       0.00000000       0.00000000
Pd       1.84552105       1.84552105       1.50000000  F       0.00000000       0.00000000       0.00000000
Pd      10.45795264       0.61517368       1.50000000  F       0.00000000       0.00000000       0.00000000
Pd      11.06818893      11.11405573       7.39104337  T       0.00000000       0.00000000       0.00000000
Pd       3.07550809      10.44932540       5.41290581  F       0.00000000       0.00000000       0.00000000
Pd       3.69104211       2.46069474       3.44535000  F       0.00000000       0.00000000       0.00000000
Pd       1.85442396       1.83305046       5.40626716  F       0.00000000       0.00000000       0.00000000
Pd      11.68830001       3.07586842       1.50000000  F       0.00000000       0.00000000       0.00000000
Pd       0.73461228       0.48000197       9.90432255  T       0.00000000       0.00000000       0.00000000
Pd       2.29215043       3.45652820       9.85278769  T       0.00000000       0.00000000       0.00000000
Pd       3.82390645       6.66601020       9.90754841  T       0.00000000       0.00000000       0.00000000
Pd       6.15173685       1.23034737       3.44535000  F       0.00000000       0.00000000       0.00000000
Pd       4.28818081       0.63072761       5.40241929  F       0.00000000       0.00000000       0.00000000
Pd       6.09566312       1.31388770       7.39438674  T       0.00000000       0.00000000       0.00000000
Pd       5.53656316       3.07586842       1.50000000  F       0.00000000       0.00000000       0.00000000
Pd       1.85444455       7.98478761       5.40627529  F       0.00000000       0.00000000       0.00000000
Pd       5.36936729       3.35857463       9.69650146  T       0.00000000       0.00000000       0.00000000
Pd       3.07586842      10.45795264       1.50000000  F       0.00000000       0.00000000       0.00000000
Pd       3.07586842       4.30621579       1.50000000  F       0.00000000       0.00000000       0.00000000
Pd       3.07547731       4.29761827       5.41291946  F       0.00000000       0.00000000       0.00000000
Pd      11.08487280       4.95514083       7.39589403  T       0.00000000       0.00000000       0.00000000
Pd      11.07312632      11.07312632       3.44535000  F       0.00000000       0.00000000       0.00000000
Pd       9.97568402       0.52165734       9.92859657  T       0.00000000       0.00000000       0.00000000
Pd       6.88916669       0.48634091       9.92249793  T       0.00000000       0.00000000       0.00000000
Pd       8.45403305       9.59810569       9.76239101  T       0.00000000       0.00000000       0.00000000
Pd       0.73431226       6.63058774       9.91063979  T       0.00000000       0.00000000       0.00000000
Pd       5.38176363       9.51340206       9.66690495  T       0.00000000       0.00000000       0.00000000
Pd      11.51813821       3.35733200       9.69161518  T       0.00000000       0.00000000       0.00000000
Pd       8.46083749       3.43681585       9.77001264  T       0.00000000       0.00000000       0.00000000
Pd       9.97833100       6.66528466       9.91045240  T       0.00000000       0.00000000       0.00000000
Pd       3.83226102       0.51133612       9.90605622  T       0.00000000       0.00000000       0.00000000
Pd       2.30723594       9.59740229       9.74945423  T       0.00000000       0.00000000       0.00000000
Pd       4.93148717      11.11099962       7.38683913  T       0.00000000       0.00000000       0.00000000
Pd      11.51331788       9.52123127       9.67024300  T       0.00000000       0.00000000       0.00000000
O        2.03154630       4.21476580      11.70349333  T       0.00000000       0.00000000       0.00000000
C        1.81967842       3.37015263      12.82081464  T       0.00000000       0.00000000       0.00000000
H        1.62687079       4.05661614      13.67013891  T       0.00000000       0.00000000       0.00000000
H        0.94398415       2.69716706      12.70657445  T       0.00000000       0.00000000       0.00000000
H        2.70671252       2.74790134      13.06452806  T       0.00000000       0.00000000       0.00000000
