117
Lattice="12.303473692417112 0.0 0.0 0.0 12.303473692417114 0.0 0.0 0.0 29.165420746594243" Properties=species:S:1:pos:R:3:move_mask:L:1:momenta:R:3 adsorbate_info="_JSON {\"site\": {\"coordinates\": [12.092756311418176, 5.066604600928085, 9.582385176818674], \"connectivity\": 3, \"topology\": [1, 103, 105], \"n_vector\": [-0.005431662116927059, -0.11261435132242228, 0.9936239252971304], \"h_vector\": [-0.011386076720968398, 0.9880442454458626, -0.15374955706674517], \"site_formula\": {\"O\": 1, \"Pd\": 2}}, \"smiles\": \"ClOC\", \"mdf\": 2.0013515423424177, \"adsorbate_formula\": \"CH3O\"}" mace_E=-585.5675190600101 converged=T n_steps=63 d_min=2.2496771850440807 site_type=unknown dE_rel_meV=0 original_idx=490 rank=496 E_MACE=-584.2559221470988 pbc="T T T"
O        8.47147735      11.64901689       9.35015949  T       0.00000000       0.00000000       0.00000000
O       11.50079730       5.46990814       9.32788634  T       0.00000000       0.00000000       0.00000000
O       11.54487003       1.67198255      10.60375410  T       0.00000000       0.00000000       0.00000000
O       11.49295990      11.60754547       9.36577056  T       0.00000000       0.00000000       0.00000000
O        8.43430430       7.88577513      10.54708636  T       0.00000000       0.00000000       0.00000000
O        5.34749334      11.58119499       9.37036499  T       0.00000000       0.00000000       0.00000000
O        5.39366608       7.84043411      10.59280243  T       0.00000000       0.00000000       0.00000000
O        8.47089777       5.50161103       9.37050142  T       0.00000000       0.00000000       0.00000000
O       11.55603285       7.85994478      10.56702317  T       0.00000000       0.00000000       0.00000000
O        2.32340043       5.49424818       9.35056421  T       0.00000000       0.00000000       0.00000000
O        2.29889046       1.72174937      10.52233438  T       0.00000000       0.00000000       0.00000000
O        2.30424660      11.63785873       9.35257312  T       0.00000000       0.00000000       0.00000000
O        5.34811315       5.44399701       9.37467396  T       0.00000000       0.00000000       0.00000000
O        5.38964752       1.68736448      10.55949939  T       0.00000000       0.00000000       0.00000000
O        2.29505703       7.88128498      10.55279647  T       0.00000000       0.00000000       0.00000000
O        8.42758846       1.72842879      10.53131293  T       0.00000000       0.00000000       0.00000000
Pd       5.53656316       9.22760527       1.50000000  F       0.00000000       0.00000000       0.00000000
Pd       6.11495307       7.46496698       7.38963727  T       0.00000000       0.00000000       0.00000000
Pd       4.28815433       6.78245218       5.40241719  F       0.00000000       0.00000000       0.00000000
Pd       6.15173685       7.38208422       3.44535000  F       0.00000000       0.00000000       0.00000000
Pd       7.33840031       3.65934241       7.36546086  T       0.00000000       0.00000000       0.00000000
Pd       5.51948843       3.08419342       5.37702261  F       0.00000000       0.00000000       0.00000000
Pd       6.76691053       5.53656316       1.50000000  F       0.00000000       0.00000000       0.00000000
Pd       7.38208422       9.84277895       3.44535000  F       0.00000000       0.00000000       0.00000000
Pd       7.99725790       7.99725790       1.50000000  F       0.00000000       0.00000000       0.00000000
Pd       5.51951598       9.23590192       5.37700272  F       0.00000000       0.00000000       0.00000000
Pd       8.00616182       7.98477587       5.40628129  F       0.00000000       0.00000000       0.00000000
Pd       6.76691053      11.68830001       1.50000000  F       0.00000000       0.00000000       0.00000000
Pd       8.61243158       0.00000000       3.44535000  F       0.00000000       0.00000000       0.00000000
Pd       6.75606179      11.70364973       5.37992114  F       0.00000000       0.00000000       0.00000000
Pd       8.55606156       0.00643516       7.39923583  T       0.00000000       0.00000000       0.00000000
Pd       9.84277895       8.61243158       3.44535000  F       0.00000000       0.00000000       0.00000000
Pd       7.38208422       3.69104211       3.44535000  F       0.00000000       0.00000000       0.00000000
Pd       3.69104211       8.61243158       3.44535000  F       0.00000000       0.00000000       0.00000000
Pd       9.82318046       8.63547157       7.51235933  T       0.00000000       0.00000000       0.00000000
Pd       9.22760527      10.45795264       1.50000000  F       0.00000000       0.00000000       0.00000000
Pd       7.33399412       9.81094236       7.35482602  T       0.00000000       0.00000000       0.00000000
Pd       1.84552105       7.99725790       1.50000000  F       0.00000000       0.00000000       0.00000000
Pd      11.68830001       9.22760527       1.50000000  F       0.00000000       0.00000000       0.00000000
Pd       0.60431863      11.70356305       5.37989931  F       0.00000000       0.00000000       0.00000000
Pd       8.61243158       6.15173685       3.44535000  F       0.00000000       0.00000000       0.00000000
Pd       6.75605293       5.55187564       5.37990856  F       0.00000000       0.00000000       0.00000000
Pd       8.56641094       6.14515338       7.40820033  T       0.00000000       0.00000000       0.00000000
Pd       7.99725790       1.84552105       1.50000000  F       0.00000000       0.00000000       0.00000000
Pd       9.84277895       2.46069474       3.44535000  F       0.00000000       0.00000000       0.00000000
Pd       8.00617313       1.83308050       5.40627808  F       0.00000000       0.00000000       0.00000000
Pd       9.83413611       2.48916024       7.52984198  T       0.00000000       0.00000000       0.00000000
Pd       9.22760527       4.30621579       1.50000000  F       0.00000000       0.00000000       0.00000000
Pd       4.92138948       4.92138948       3.44535000  F       0.00000000       0.00000000       0.00000000
Pd       9.22722207       4.29761474       5.41287912  F       0.00000000       0.00000000       0.00000000
Pd       4.93065346       4.97379106       7.39642617  T       0.00000000       0.00000000       0.00000000
Pd      10.45795264       6.76691053       1.50000000  F       0.00000000       0.00000000       0.00000000
Pd       0.00000000       7.38208422       3.44535000  F       0.00000000       0.00000000       0.00000000
Pd      10.43991375       6.78245558       5.40242713  F       0.00000000       0.00000000       0.00000000
Pd      12.25207167       7.45531694       7.37740571  T       0.00000000       0.00000000       0.00000000
Pd       4.92138948      11.07312632       3.44535000  F       0.00000000       0.00000000       0.00000000
Pd       1.23034737       9.84277895       3.44535000  F       0.00000000       0.00000000       0.00000000
Pd      11.67120661       9.23591801       5.37701028  F       0.00000000       0.00000000       0.00000000
Pd       1.17543006       9.80355713       7.35456994  T       0.00000000       0.00000000       0.00000000
Pd       0.61517368      11.68830001       1.50000000  F       0.00000000       0.00000000       0.00000000
Pd       2.46069474       0.00000000       3.44535000  F       0.00000000       0.00000000       0.00000000
Pd       2.40449238      -0.00835174       7.39981727  T       0.00000000       0.00000000       0.00000000
Pd       9.22719689      10.44932842       5.41286416  F       0.00000000       0.00000000       0.00000000
Pd       3.66881813       8.62751341       7.51596196  T       0.00000000       0.00000000       0.00000000
Pd       4.30621579       0.61517368       1.50000000  F       0.00000000       0.00000000       0.00000000
Pd      11.07312632       4.92138948       3.44535000  F       0.00000000       0.00000000       0.00000000
Pd       4.30621579       6.76691053       1.50000000  F       0.00000000       0.00000000       0.00000000
Pd       3.65707225       2.47818780       7.50765815  T       0.00000000       0.00000000       0.00000000
Pd       2.40555459       6.15151087       7.40286574  T       0.00000000       0.00000000       0.00000000
Pd       0.60433818       5.55187436       5.37993065  F       0.00000000       0.00000000       0.00000000
Pd       2.46069474       6.15173685       3.44535000  F       0.00000000       0.00000000       0.00000000
Pd       0.61517368       5.53656316       1.50000000  F       0.00000000       0.00000000       0.00000000
Pd       1.16634081       3.66695497       7.36566259  T       0.00000000       0.00000000       0.00000000
Pd      11.67123156       3.08419612       5.37703229  F       0.00000000       0.00000000       0.00000000
Pd       6.90978183       6.70583021       9.92407235  T       0.00000000       0.00000000       0.00000000
Pd       1.23034737       3.69104211       3.44535000  F       0.00000000       0.00000000       0.00000000
Pd      12.26040068       1.31780953       7.37775887  T       0.00000000       0.00000000       0.00000000
Pd      10.43990395       0.63072067       5.40242717  F       0.00000000       0.00000000       0.00000000
Pd       0.00000000       1.23034737       3.44535000  F       0.00000000       0.00000000       0.00000000
Pd       1.84552105       1.84552105       1.50000000  F       0.00000000       0.00000000       0.00000000
Pd      10.45795264       0.61517368       1.50000000  F       0.00000000       0.00000000       0.00000000
Pd      11.08096035      11.12879276       7.39586981  T       0.00000000       0.00000000       0.00000000
Pd       3.07550809      10.44932540       5.41290581  F       0.00000000       0.00000000       0.00000000
Pd       3.69104211       2.46069474       3.44535000  F       0.00000000       0.00000000       0.00000000
Pd       1.85442396       1.83305046       5.40626716  F       0.00000000       0.00000000       0.00000000
Pd      11.68830001       3.07586842       1.50000000  F       0.00000000       0.00000000       0.00000000
Pd       0.75267977       0.56484319       9.89569533  T       0.00000000       0.00000000       0.00000000
Pd       2.34992074       3.51204834       9.74630649  T       0.00000000       0.00000000       0.00000000
Pd       3.85180123       6.74084576       9.92449540  T       0.00000000       0.00000000       0.00000000
Pd       6.15173685       1.23034737       3.44535000  F       0.00000000       0.00000000       0.00000000
Pd       4.28818081       0.63072761       5.40241929  F       0.00000000       0.00000000       0.00000000
Pd       6.10504885       1.31687182       7.38046234  T       0.00000000       0.00000000       0.00000000
Pd       5.53656316       3.07586842       1.50000000  F       0.00000000       0.00000000       0.00000000
Pd       1.85444455       7.98478761       5.40627529  F       0.00000000       0.00000000       0.00000000
Pd       5.38880808       3.42624779       9.67643382  T       0.00000000       0.00000000       0.00000000
Pd       3.07586842      10.45795264       1.50000000  F       0.00000000       0.00000000       0.00000000
Pd       3.07586842       4.30621579       1.50000000  F       0.00000000       0.00000000       0.00000000
Pd       3.07547731       4.29761827       5.41291946  F       0.00000000       0.00000000       0.00000000
Pd      11.08087704       4.94425477       7.40262214  T       0.00000000       0.00000000       0.00000000
Pd      11.07312632      11.07312632       3.44535000  F       0.00000000       0.00000000       0.00000000
Pd       9.99871552       0.60833759       9.90331434  T       0.00000000       0.00000000       0.00000000
Pd       6.90782803       0.55136361       9.90155614  T       0.00000000       0.00000000       0.00000000
Pd       8.47090066       9.67099145       9.76306228  T       0.00000000       0.00000000       0.00000000
Pd       0.76629399       6.71696969       9.90886350  T       0.00000000       0.00000000       0.00000000
Pd       5.38966993       9.57276826       9.69733533  T       0.00000000       0.00000000       0.00000000
Pd      11.52715051       3.50911449       9.87794437  T       0.00000000       0.00000000       0.00000000
Pd       8.48140511       3.52502962       9.77983609  T       0.00000000       0.00000000       0.00000000
Pd      10.00389791       6.75667444       9.91792905  T       0.00000000       0.00000000       0.00000000
Pd       3.84710237       0.57738545       9.90200682  T       0.00000000       0.00000000       0.00000000
Pd       2.32171847       9.66309218       9.76401645  T       0.00000000       0.00000000       0.00000000
Pd       4.93298441      11.11504505       7.39685211  T       0.00000000       0.00000000       0.00000000
Pd      11.54601693       9.59327500       9.68457429  T       0.00000000       0.00000000       0.00000000
O       11.45669364       4.14692230      11.79594533  T       0.00000000       0.00000000       0.00000000
C       12.66982315       4.49725122      12.39503267  T       0.00000000       0.00000000       0.00000000
H       12.45394724       4.65670709      13.47216643  T       0.00000000       0.00000000       0.00000000
H       13.45846155       3.71630538      12.30368020  T       0.00000000       0.00000000       0.00000000
H       13.09755041       5.46143340      11.99737440  T       0.00000000       0.00000000       0.00000000
