117
Lattice="12.303473692417112 0.0 0.0 0.0 12.303473692417114 0.0 0.0 0.0 29.165420746594243" Properties=species:S:1:pos:R:3:move_mask:L:1:momenta:R:3 adsorbate_info="_JSON {\"site\": {\"coordinates\": [6.974033317794095, 7.332905627437188, 10.216667376038997], \"connectivity\": 3, \"topology\": [4, 6, 74], \"n_vector\": [-0.001449727813270765, -0.15899810603748757, 0.9872778233940837], \"h_vector\": [0.7623197205976097, -0.582078754236174, -0.2829363310973796], \"site_formula\": {\"O\": 2, \"Pd\": 1}}, \"smiles\": \"ClOC\", \"mdf\": 1.9913425203206978, \"adsorbate_formula\": \"CH3O\"}" mace_E=-585.353173532503 converged=T n_steps=47 d_min=2.122903513658137 site_type=unknown dE_rel_meV=0 original_idx=283 rank=2 E_MACE=-585.9012623775004 pbc="T T T"
O        8.48032195      11.61103659       9.34868097  T       0.00000000       0.00000000       0.00000000
O       11.51352842       5.42235381       9.36558621  T       0.00000000       0.00000000       0.00000000
O       11.55582731       1.67157325      10.56624351  T       0.00000000       0.00000000       0.00000000
O       11.51006243      11.57061190       9.36889078  T       0.00000000       0.00000000       0.00000000
O        8.48251892       7.87058902      10.54868049  T       0.00000000       0.00000000       0.00000000
O        5.35573769      11.56091685       9.37627307  T       0.00000000       0.00000000       0.00000000
O        5.39160807       7.82926315      10.57719013  T       0.00000000       0.00000000       0.00000000
O        8.48989841       5.46734064       9.35514368  T       0.00000000       0.00000000       0.00000000
O       11.56628326       7.82498431      10.56883551  T       0.00000000       0.00000000       0.00000000
O        2.33198786       5.46680814       9.35581741  T       0.00000000       0.00000000       0.00000000
O        2.29423718       1.70013308      10.53206156  T       0.00000000       0.00000000       0.00000000
O        2.32604573      11.61766186       9.35554790  T       0.00000000       0.00000000       0.00000000
O        5.34124815       5.40927929       9.35876203  T       0.00000000       0.00000000       0.00000000
O        5.40652529       1.66133356      10.57115490  T       0.00000000       0.00000000       0.00000000
O        2.30013980       7.85395439      10.53665839  T       0.00000000       0.00000000       0.00000000
O        8.45083426       1.69442972      10.53247271  T       0.00000000       0.00000000       0.00000000
Pd       5.53656316       9.22760527       1.50000000  F       0.00000000       0.00000000       0.00000000
Pd       6.13487653       7.45399092       7.44787791  T       0.00000000       0.00000000       0.00000000
Pd       4.28815433       6.78245218       5.40241719  F       0.00000000       0.00000000       0.00000000
Pd       6.15173685       7.38208422       3.44535000  F       0.00000000       0.00000000       0.00000000
Pd       7.33398771       3.65807647       7.35596406  T       0.00000000       0.00000000       0.00000000
Pd       5.51948843       3.08419342       5.37702261  F       0.00000000       0.00000000       0.00000000
Pd       6.76691053       5.53656316       1.50000000  F       0.00000000       0.00000000       0.00000000
Pd       7.38208422       9.84277895       3.44535000  F       0.00000000       0.00000000       0.00000000
Pd       7.99725790       7.99725790       1.50000000  F       0.00000000       0.00000000       0.00000000
Pd       5.51951598       9.23590192       5.37700272  F       0.00000000       0.00000000       0.00000000
Pd       8.00616182       7.98477587       5.40628129  F       0.00000000       0.00000000       0.00000000
Pd       6.76691053      11.68830001       1.50000000  F       0.00000000       0.00000000       0.00000000
Pd       8.61243158       0.00000000       3.44535000  F       0.00000000       0.00000000       0.00000000
Pd       6.75606179      11.70364973       5.37992114  F       0.00000000       0.00000000       0.00000000
Pd       8.55999303      -0.00537718       7.39989318  T       0.00000000       0.00000000       0.00000000
Pd       9.84277895       8.61243158       3.44535000  F       0.00000000       0.00000000       0.00000000
Pd       7.38208422       3.69104211       3.44535000  F       0.00000000       0.00000000       0.00000000
Pd       3.69104211       8.61243158       3.44535000  F       0.00000000       0.00000000       0.00000000
Pd       9.82518163       8.62156070       7.50146206  T       0.00000000       0.00000000       0.00000000
Pd       9.22760527      10.45795264       1.50000000  F       0.00000000       0.00000000       0.00000000
Pd       7.33429241       9.81196927       7.34017336  T       0.00000000       0.00000000       0.00000000
Pd       1.84552105       7.99725790       1.50000000  F       0.00000000       0.00000000       0.00000000
Pd      11.68830001       9.22760527       1.50000000  F       0.00000000       0.00000000       0.00000000
Pd       0.60431863      11.70356305       5.37989931  F       0.00000000       0.00000000       0.00000000
Pd       8.61243158       6.15173685       3.44535000  F       0.00000000       0.00000000       0.00000000
Pd       6.75605293       5.55187564       5.37990856  F       0.00000000       0.00000000       0.00000000
Pd       8.54575778       6.14820165       7.41992376  T       0.00000000       0.00000000       0.00000000
Pd       7.99725790       1.84552105       1.50000000  F       0.00000000       0.00000000       0.00000000
Pd       9.84277895       2.46069474       3.44535000  F       0.00000000       0.00000000       0.00000000
Pd       8.00617313       1.83308050       5.40627808  F       0.00000000       0.00000000       0.00000000
Pd       9.82131165       2.47154974       7.50083659  T       0.00000000       0.00000000       0.00000000
Pd       9.22760527       4.30621579       1.50000000  F       0.00000000       0.00000000       0.00000000
Pd       4.92138948       4.92138948       3.44535000  F       0.00000000       0.00000000       0.00000000
Pd       9.22722207       4.29761474       5.41287912  F       0.00000000       0.00000000       0.00000000
Pd       4.93115526       4.96371679       7.39283184  T       0.00000000       0.00000000       0.00000000
Pd      10.45795264       6.76691053       1.50000000  F       0.00000000       0.00000000       0.00000000
Pd       0.00000000       7.38208422       3.44535000  F       0.00000000       0.00000000       0.00000000
Pd      10.43991375       6.78245558       5.40242713  F       0.00000000       0.00000000       0.00000000
Pd      12.27136410       7.46080616       7.37987032  T       0.00000000       0.00000000       0.00000000
Pd       4.92138948      11.07312632       3.44535000  F       0.00000000       0.00000000       0.00000000
Pd       1.23034737       9.84277895       3.44535000  F       0.00000000       0.00000000       0.00000000
Pd      11.67120661       9.23591801       5.37701028  F       0.00000000       0.00000000       0.00000000
Pd       1.18300515       9.81018067       7.35273737  T       0.00000000       0.00000000       0.00000000
Pd       0.61517368      11.68830001       1.50000000  F       0.00000000       0.00000000       0.00000000
Pd       2.46069474       0.00000000       3.44535000  F       0.00000000       0.00000000       0.00000000
Pd       2.40571632      -0.00318182       7.40446700  T       0.00000000       0.00000000       0.00000000
Pd       9.22719689      10.44932842       5.41286416  F       0.00000000       0.00000000       0.00000000
Pd       3.67550637       8.61864104       7.49296595  T       0.00000000       0.00000000       0.00000000
Pd       4.30621579       0.61517368       1.50000000  F       0.00000000       0.00000000       0.00000000
Pd      11.07312632       4.92138948       3.44535000  F       0.00000000       0.00000000       0.00000000
Pd       4.30621579       6.76691053       1.50000000  F       0.00000000       0.00000000       0.00000000
Pd       3.67491608       2.47254008       7.50509090  T       0.00000000       0.00000000       0.00000000
Pd       2.41093112       6.14275390       7.40466004  T       0.00000000       0.00000000       0.00000000
Pd       0.60433818       5.55187436       5.37993065  F       0.00000000       0.00000000       0.00000000
Pd       2.46069474       6.15173685       3.44535000  F       0.00000000       0.00000000       0.00000000
Pd       0.61517368       5.53656316       1.50000000  F       0.00000000       0.00000000       0.00000000
Pd       1.18013414       3.65977059       7.35264152  T       0.00000000       0.00000000       0.00000000
Pd      11.67123156       3.08419612       5.37703229  F       0.00000000       0.00000000       0.00000000
Pd       6.92220010       6.65020125      10.00082753  T       0.00000000       0.00000000       0.00000000
Pd       1.23034737       3.69104211       3.44535000  F       0.00000000       0.00000000       0.00000000
Pd      12.26364149       1.31004208       7.38474943  T       0.00000000       0.00000000       0.00000000
Pd      10.43990395       0.63072067       5.40242717  F       0.00000000       0.00000000       0.00000000
Pd       0.00000000       1.23034737       3.44535000  F       0.00000000       0.00000000       0.00000000
Pd       1.84552105       1.84552105       1.50000000  F       0.00000000       0.00000000       0.00000000
Pd      10.45795264       0.61517368       1.50000000  F       0.00000000       0.00000000       0.00000000
Pd      11.08207877      11.11693781       7.39411934  T       0.00000000       0.00000000       0.00000000
Pd       3.07550809      10.44932540       5.41290581  F       0.00000000       0.00000000       0.00000000
Pd       3.69104211       2.46069474       3.44535000  F       0.00000000       0.00000000       0.00000000
Pd       1.85442396       1.83305046       5.40626716  F       0.00000000       0.00000000       0.00000000
Pd      11.68830001       3.07586842       1.50000000  F       0.00000000       0.00000000       0.00000000
Pd       0.76514536       0.52887641       9.90630833  T       0.00000000       0.00000000       0.00000000
Pd       2.33832699       3.48729010       9.75656677  T       0.00000000       0.00000000       0.00000000
Pd       3.85903424       6.71045553       9.92372053  T       0.00000000       0.00000000       0.00000000
Pd       6.15173685       1.23034737       3.44535000  F       0.00000000       0.00000000       0.00000000
Pd       4.28818081       0.63072761       5.40241929  F       0.00000000       0.00000000       0.00000000
Pd       6.11520502       1.31009865       7.38844051  T       0.00000000       0.00000000       0.00000000
Pd       5.53656316       3.07586842       1.50000000  F       0.00000000       0.00000000       0.00000000
Pd       1.85444455       7.98478761       5.40627529  F       0.00000000       0.00000000       0.00000000
Pd       5.39446498       3.40571442       9.69862061  T       0.00000000       0.00000000       0.00000000
Pd       3.07586842      10.45795264       1.50000000  F       0.00000000       0.00000000       0.00000000
Pd       3.07586842       4.30621579       1.50000000  F       0.00000000       0.00000000       0.00000000
Pd       3.07547731       4.29761827       5.41291946  F       0.00000000       0.00000000       0.00000000
Pd      11.07623688       4.97067139       7.39482761  T       0.00000000       0.00000000       0.00000000
Pd      11.07312632      11.07312632       3.44535000  F       0.00000000       0.00000000       0.00000000
Pd      10.00992763       0.55814906       9.91385295  T       0.00000000       0.00000000       0.00000000
Pd       6.91787676       0.52095894       9.90757225  T       0.00000000       0.00000000       0.00000000
Pd       8.49550412       9.63749286       9.74608946  T       0.00000000       0.00000000       0.00000000
Pd       0.77468259       6.68183335       9.90948475  T       0.00000000       0.00000000       0.00000000
Pd       5.41197671       9.53073088       9.64411692  T       0.00000000       0.00000000       0.00000000
Pd      11.54973123       3.40814545       9.67668562  T       0.00000000       0.00000000       0.00000000
Pd       8.50914632       3.48289521       9.75507319  T       0.00000000       0.00000000       0.00000000
Pd      10.02248094       6.72037458       9.90811843  T       0.00000000       0.00000000       0.00000000
Pd       3.85697148       0.56021092       9.91487040  T       0.00000000       0.00000000       0.00000000
Pd       2.33749993       9.63723062       9.75333606  T       0.00000000       0.00000000       0.00000000
Pd       4.92919076      11.12515423       7.39637793  T       0.00000000       0.00000000       0.00000000
Pd      11.55834687       9.55713979       9.67589009  T       0.00000000       0.00000000       0.00000000
O        6.82958262       5.76575548      11.84846481  T       0.00000000       0.00000000       0.00000000
C        8.00265646       5.54868995      12.59564704  T       0.00000000       0.00000000       0.00000000
H        7.70648721       5.61204433      13.66376524  T       0.00000000       0.00000000       0.00000000
H        8.43378208       4.53521740      12.41593459  T       0.00000000       0.00000000       0.00000000
H        8.80276080       6.30044551      12.42089983  T       0.00000000       0.00000000       0.00000000
