117
Lattice="12.303473692417112 0.0 0.0 0.0 12.303473692417114 0.0 0.0 0.0 29.165420746594243" Properties=species:S:1:pos:R:3:move_mask:L:1:momenta:R:3 adsorbate_info="_JSON {\"site\": {\"coordinates\": [7.493865048456766, 2.1786022806874237, 10.170368848606856], \"connectivity\": 3, \"topology\": [13, 15, 106], \"n_vector\": [-0.11482350321852969, 0.369239018072436, 0.9222137011785976], \"h_vector\": [-0.013307525934367315, -0.9283414913983937, 0.37149022208089444], \"site_formula\": {\"O\": 2, \"Pd\": 1}}, \"smiles\": \"ClOC\", \"mdf\": 2.2527626927631323, \"adsorbate_formula\": \"CH3O\"}" mace_E=-585.560989084422 converged=T n_steps=76 d_min=2.126097826726589 site_type=unknown dE_rel_meV=0 original_idx=291 rank=3 E_MACE=-585.8972411167513 pbc="T T T"
O        8.47571209      11.61984362       9.34503960  T       0.00000000       0.00000000       0.00000000
O       11.51355264       5.44317782       9.37357255  T       0.00000000       0.00000000       0.00000000
O       11.55590828       1.68114350      10.54207720  T       0.00000000       0.00000000       0.00000000
O       11.50682396      11.56536623       9.37382081  T       0.00000000       0.00000000       0.00000000
O        8.46293625       7.86799496      10.57204665  T       0.00000000       0.00000000       0.00000000
O        5.35625928      11.57578386       9.36327927  T       0.00000000       0.00000000       0.00000000
O        5.41579468       7.84037292      10.58102333  T       0.00000000       0.00000000       0.00000000
O        8.49456846       5.49232821       9.36449336  T       0.00000000       0.00000000       0.00000000
O       11.57478889       7.82555491      10.59974262  T       0.00000000       0.00000000       0.00000000
O        2.34112160       5.48785536       9.36021037  T       0.00000000       0.00000000       0.00000000
O        2.28338456       1.71146891      10.50860994  T       0.00000000       0.00000000       0.00000000
O        2.32305349      11.61992287       9.34855843  T       0.00000000       0.00000000       0.00000000
O        5.36652620       5.45207146       9.33172426  T       0.00000000       0.00000000       0.00000000
O        5.40322645       1.64504792      10.57757050  T       0.00000000       0.00000000       0.00000000
O        2.30412385       7.86579464      10.55766476  T       0.00000000       0.00000000       0.00000000
O        8.45972829       1.70925725      10.51369903  T       0.00000000       0.00000000       0.00000000
Pd       5.53656316       9.22760527       1.50000000  F       0.00000000       0.00000000       0.00000000
Pd       6.10530208       7.45125641       7.38234104  T       0.00000000       0.00000000       0.00000000
Pd       4.28815433       6.78245218       5.40241719  F       0.00000000       0.00000000       0.00000000
Pd       6.15173685       7.38208422       3.44535000  F       0.00000000       0.00000000       0.00000000
Pd       7.31891948       3.65433831       7.37310307  T       0.00000000       0.00000000       0.00000000
Pd       5.51948843       3.08419342       5.37702261  F       0.00000000       0.00000000       0.00000000
Pd       6.76691053       5.53656316       1.50000000  F       0.00000000       0.00000000       0.00000000
Pd       7.38208422       9.84277895       3.44535000  F       0.00000000       0.00000000       0.00000000
Pd       7.99725790       7.99725790       1.50000000  F       0.00000000       0.00000000       0.00000000
Pd       5.51951598       9.23590192       5.37700272  F       0.00000000       0.00000000       0.00000000
Pd       8.00616182       7.98477587       5.40628129  F       0.00000000       0.00000000       0.00000000
Pd       6.76691053      11.68830001       1.50000000  F       0.00000000       0.00000000       0.00000000
Pd       8.61243158       0.00000000       3.44535000  F       0.00000000       0.00000000       0.00000000
Pd       6.75606179      11.70364973       5.37992114  F       0.00000000       0.00000000       0.00000000
Pd       8.56096262      -0.00666804       7.40022258  T       0.00000000       0.00000000       0.00000000
Pd       9.84277895       8.61243158       3.44535000  F       0.00000000       0.00000000       0.00000000
Pd       7.38208422       3.69104211       3.44535000  F       0.00000000       0.00000000       0.00000000
Pd       3.69104211       8.61243158       3.44535000  F       0.00000000       0.00000000       0.00000000
Pd       9.82296542       8.61614298       7.51018936  T       0.00000000       0.00000000       0.00000000
Pd       9.22760527      10.45795264       1.50000000  F       0.00000000       0.00000000       0.00000000
Pd       7.33290356       9.80080583       7.35736651  T       0.00000000       0.00000000       0.00000000
Pd       1.84552105       7.99725790       1.50000000  F       0.00000000       0.00000000       0.00000000
Pd      11.68830001       9.22760527       1.50000000  F       0.00000000       0.00000000       0.00000000
Pd       0.60431863      11.70356305       5.37989931  F       0.00000000       0.00000000       0.00000000
Pd       8.61243158       6.15173685       3.44535000  F       0.00000000       0.00000000       0.00000000
Pd       6.75605293       5.55187564       5.37990856  F       0.00000000       0.00000000       0.00000000
Pd       8.55319327       6.14205564       7.40703816  T       0.00000000       0.00000000       0.00000000
Pd       7.99725790       1.84552105       1.50000000  F       0.00000000       0.00000000       0.00000000
Pd       9.84277895       2.46069474       3.44535000  F       0.00000000       0.00000000       0.00000000
Pd       8.00617313       1.83308050       5.40627808  F       0.00000000       0.00000000       0.00000000
Pd       9.82270530       2.47667087       7.50132663  T       0.00000000       0.00000000       0.00000000
Pd       9.22760527       4.30621579       1.50000000  F       0.00000000       0.00000000       0.00000000
Pd       4.92138948       4.92138948       3.44535000  F       0.00000000       0.00000000       0.00000000
Pd       9.22722207       4.29761474       5.41287912  F       0.00000000       0.00000000       0.00000000
Pd       4.92904977       4.94374716       7.40040837  T       0.00000000       0.00000000       0.00000000
Pd      10.45795264       6.76691053       1.50000000  F       0.00000000       0.00000000       0.00000000
Pd       0.00000000       7.38208422       3.44535000  F       0.00000000       0.00000000       0.00000000
Pd      10.43991375       6.78245558       5.40242713  F       0.00000000       0.00000000       0.00000000
Pd      12.26638831       7.46523262       7.39453941  T       0.00000000       0.00000000       0.00000000
Pd       4.92138948      11.07312632       3.44535000  F       0.00000000       0.00000000       0.00000000
Pd       1.23034737       9.84277895       3.44535000  F       0.00000000       0.00000000       0.00000000
Pd      11.67120661       9.23591801       5.37701028  F       0.00000000       0.00000000       0.00000000
Pd       1.18158880       9.80841798       7.35912708  T       0.00000000       0.00000000       0.00000000
Pd       0.61517368      11.68830001       1.50000000  F       0.00000000       0.00000000       0.00000000
Pd       2.46069474       0.00000000       3.44535000  F       0.00000000       0.00000000       0.00000000
Pd       2.41203466      -0.00399474       7.39722906  T       0.00000000       0.00000000       0.00000000
Pd       9.22719689      10.44932842       5.41286416  F       0.00000000       0.00000000       0.00000000
Pd       3.67022413       8.62350645       7.51149006  T       0.00000000       0.00000000       0.00000000
Pd       4.30621579       0.61517368       1.50000000  F       0.00000000       0.00000000       0.00000000
Pd      11.07312632       4.92138948       3.44535000  F       0.00000000       0.00000000       0.00000000
Pd       4.30621579       6.76691053       1.50000000  F       0.00000000       0.00000000       0.00000000
Pd       3.68168487       2.48060516       7.51564792  T       0.00000000       0.00000000       0.00000000
Pd       2.40820647       6.14236025       7.40583911  T       0.00000000       0.00000000       0.00000000
Pd       0.60433818       5.55187436       5.37993065  F       0.00000000       0.00000000       0.00000000
Pd       2.46069474       6.15173685       3.44535000  F       0.00000000       0.00000000       0.00000000
Pd       0.61517368       5.53656316       1.50000000  F       0.00000000       0.00000000       0.00000000
Pd       1.17840757       3.65538880       7.35518934  T       0.00000000       0.00000000       0.00000000
Pd      11.67123156       3.08419612       5.37703229  F       0.00000000       0.00000000       0.00000000
Pd       6.93164748       6.70564249       9.91961780  T       0.00000000       0.00000000       0.00000000
Pd       1.23034737       3.69104211       3.44535000  F       0.00000000       0.00000000       0.00000000
Pd      12.26418682       1.30265541       7.38296242  T       0.00000000       0.00000000       0.00000000
Pd      10.43990395       0.63072067       5.40242717  F       0.00000000       0.00000000       0.00000000
Pd       0.00000000       1.23034737       3.44535000  F       0.00000000       0.00000000       0.00000000
Pd       1.84552105       1.84552105       1.50000000  F       0.00000000       0.00000000       0.00000000
Pd      10.45795264       0.61517368       1.50000000  F       0.00000000       0.00000000       0.00000000
Pd      11.08334957      11.10747071       7.39932443  T       0.00000000       0.00000000       0.00000000
Pd       3.07550809      10.44932540       5.41290581  F       0.00000000       0.00000000       0.00000000
Pd       3.69104211       2.46069474       3.44535000  F       0.00000000       0.00000000       0.00000000
Pd       1.85442396       1.83305046       5.40626716  F       0.00000000       0.00000000       0.00000000
Pd      11.68830001       3.07586842       1.50000000  F       0.00000000       0.00000000       0.00000000
Pd       0.76308744       0.53068952       9.89815221  T       0.00000000       0.00000000       0.00000000
Pd       2.34107629       3.50980315       9.75746577  T       0.00000000       0.00000000       0.00000000
Pd       3.86959073       6.73526366       9.92641802  T       0.00000000       0.00000000       0.00000000
Pd       6.15173685       1.23034737       3.44535000  F       0.00000000       0.00000000       0.00000000
Pd       4.28818081       0.63072761       5.40241929  F       0.00000000       0.00000000       0.00000000
Pd       6.10831914       1.30711454       7.37802460  T       0.00000000       0.00000000       0.00000000
Pd       5.53656316       3.07586842       1.50000000  F       0.00000000       0.00000000       0.00000000
Pd       1.85444455       7.98478761       5.40627529  F       0.00000000       0.00000000       0.00000000
Pd       5.37705651       3.48156512       9.85574555  T       0.00000000       0.00000000       0.00000000
Pd       3.07586842      10.45795264       1.50000000  F       0.00000000       0.00000000       0.00000000
Pd       3.07586842       4.30621579       1.50000000  F       0.00000000       0.00000000       0.00000000
Pd       3.07547731       4.29761827       5.41291946  F       0.00000000       0.00000000       0.00000000
Pd      11.07617635       4.97632533       7.39719790  T       0.00000000       0.00000000       0.00000000
Pd      11.07312632      11.07312632       3.44535000  F       0.00000000       0.00000000       0.00000000
Pd      10.01118055       0.56646661       9.89467229  T       0.00000000       0.00000000       0.00000000
Pd       6.91658520       0.54128763       9.88473353  T       0.00000000       0.00000000       0.00000000
Pd       8.49398995       9.64553837       9.76849043  T       0.00000000       0.00000000       0.00000000
Pd       0.77880480       6.69346105       9.92190781  T       0.00000000       0.00000000       0.00000000
Pd       5.41251866       9.56464045       9.67626264  T       0.00000000       0.00000000       0.00000000
Pd      11.55458715       3.42488125       9.66842504  T       0.00000000       0.00000000       0.00000000
Pd       8.52053050       3.50584614       9.75341087  T       0.00000000       0.00000000       0.00000000
Pd      10.02129004       6.73454754       9.93609458  T       0.00000000       0.00000000       0.00000000
Pd       3.85485017       0.57856875       9.89011447  T       0.00000000       0.00000000       0.00000000
Pd       2.33596181       9.64642159       9.76707702  T       0.00000000       0.00000000       0.00000000
Pd       4.93026847      11.11657960       7.39381079  T       0.00000000       0.00000000       0.00000000
Pd      11.55892312       9.55781864       9.70299380  T       0.00000000       0.00000000       0.00000000
O        5.26746703       4.07337690      11.78787702  T       0.00000000       0.00000000       0.00000000
C        6.47500312       4.45731495      12.37446914  T       0.00000000       0.00000000       0.00000000
H        6.32372492       4.42951720      13.47376071  T       0.00000000       0.00000000       0.00000000
H        7.33275658       3.78689523      12.12356232  T       0.00000000       0.00000000       0.00000000
H        6.77892291       5.50470611      12.09451656  T       0.00000000       0.00000000       0.00000000
