117
Lattice="12.303473692417112 0.0 0.0 0.0 12.303473692417114 0.0 0.0 0.0 29.165420746594243" Properties=species:S:1:pos:R:3:move_mask:L:1:momenta:R:3 adsorbate_info="_JSON {\"site\": {\"coordinates\": [0.04102037227266321, 12.083615194278135, 9.56823775890239], \"connectivity\": 2, \"topology\": [3, 86], \"n_vector\": [0.023978185447990873, -0.24959882267791725, 0.9680524130130658], \"h_vector\": [0.7568991218933651, 0.6004246249590146, 0.2580581117110633], \"site_formula\": {\"O\": 1, \"Pd\": 1}}, \"smiles\": \"ClOC\", \"mdf\": 1.8808282703180605, \"adsorbate_formula\": \"CH3O\"}" mace_E=-585.4047644880303 converged=T n_steps=82 d_min=2.040270639419569 site_type=unknown dE_rel_meV=0 original_idx=3 rank=251 E_MACE=-585.4175835481637 pbc="T T T"
O        8.46918746      11.59067089       9.35316422  T       0.00000000       0.00000000       0.00000000
O       11.48391568       5.37669510       9.38863475  T       0.00000000       0.00000000       0.00000000
O       11.53428574       1.64053096      10.59374948  T       0.00000000       0.00000000       0.00000000
O       11.48249974      11.54143488       9.35113631  T       0.00000000       0.00000000       0.00000000
O        8.42388042       7.82432947      10.54015368  T       0.00000000       0.00000000       0.00000000
O        5.34910020      11.54203630       9.37322117  T       0.00000000       0.00000000       0.00000000
O        5.37004115       7.79780318      10.58404168  T       0.00000000       0.00000000       0.00000000
O        8.43931434       5.44183065       9.34795382  T       0.00000000       0.00000000       0.00000000
O       11.51135118       7.78344160      10.58977623  T       0.00000000       0.00000000       0.00000000
O        2.29270054       5.45273972       9.34780183  T       0.00000000       0.00000000       0.00000000
O        2.32386885       1.70326262      10.53313650  T       0.00000000       0.00000000       0.00000000
O        2.32705488      11.60557909       9.32022052  T       0.00000000       0.00000000       0.00000000
O        5.32284795       5.40444504       9.38346702  T       0.00000000       0.00000000       0.00000000
O        5.39736048       1.64859256      10.56086326  T       0.00000000       0.00000000       0.00000000
O        2.25671072       7.83786732      10.53828953  T       0.00000000       0.00000000       0.00000000
O        8.43681570       1.67808098      10.53304374  T       0.00000000       0.00000000       0.00000000
Pd       5.53656316       9.22760527       1.50000000  F       0.00000000       0.00000000       0.00000000
Pd       6.10666009       7.46163957       7.39262472  T       0.00000000       0.00000000       0.00000000
Pd       4.28815433       6.78245218       5.40241719  F       0.00000000       0.00000000       0.00000000
Pd       6.15173685       7.38208422       3.44535000  F       0.00000000       0.00000000       0.00000000
Pd       7.33049136       3.65383429       7.34751981  T       0.00000000       0.00000000       0.00000000
Pd       5.51948843       3.08419342       5.37702261  F       0.00000000       0.00000000       0.00000000
Pd       6.76691053       5.53656316       1.50000000  F       0.00000000       0.00000000       0.00000000
Pd       7.38208422       9.84277895       3.44535000  F       0.00000000       0.00000000       0.00000000
Pd       7.99725790       7.99725790       1.50000000  F       0.00000000       0.00000000       0.00000000
Pd       5.51951598       9.23590192       5.37700272  F       0.00000000       0.00000000       0.00000000
Pd       8.00616182       7.98477587       5.40628129  F       0.00000000       0.00000000       0.00000000
Pd       6.76691053      11.68830001       1.50000000  F       0.00000000       0.00000000       0.00000000
Pd       8.61243158       0.00000000       3.44535000  F       0.00000000       0.00000000       0.00000000
Pd       6.75606179      11.70364973       5.37992114  F       0.00000000       0.00000000       0.00000000
Pd       8.55603666      -0.01306020       7.40352621  T       0.00000000       0.00000000       0.00000000
Pd       9.84277895       8.61243158       3.44535000  F       0.00000000       0.00000000       0.00000000
Pd       7.38208422       3.69104211       3.44535000  F       0.00000000       0.00000000       0.00000000
Pd       3.69104211       8.61243158       3.44535000  F       0.00000000       0.00000000       0.00000000
Pd       9.81898909       8.61596737       7.50122039  T       0.00000000       0.00000000       0.00000000
Pd       9.22760527      10.45795264       1.50000000  F       0.00000000       0.00000000       0.00000000
Pd       7.33201829       9.80350097       7.35573183  T       0.00000000       0.00000000       0.00000000
Pd       1.84552105       7.99725790       1.50000000  F       0.00000000       0.00000000       0.00000000
Pd      11.68830001       9.22760527       1.50000000  F       0.00000000       0.00000000       0.00000000
Pd       0.60431863      11.70356305       5.37989931  F       0.00000000       0.00000000       0.00000000
Pd       8.61243158       6.15173685       3.44535000  F       0.00000000       0.00000000       0.00000000
Pd       6.75605293       5.55187564       5.37990856  F       0.00000000       0.00000000       0.00000000
Pd       8.55016238       6.14504159       7.40435127  T       0.00000000       0.00000000       0.00000000
Pd       7.99725790       1.84552105       1.50000000  F       0.00000000       0.00000000       0.00000000
Pd       9.84277895       2.46069474       3.44535000  F       0.00000000       0.00000000       0.00000000
Pd       8.00617313       1.83308050       5.40627808  F       0.00000000       0.00000000       0.00000000
Pd       9.82364798       2.46651250       7.49151242  T       0.00000000       0.00000000       0.00000000
Pd       9.22760527       4.30621579       1.50000000  F       0.00000000       0.00000000       0.00000000
Pd       4.92138948       4.92138948       3.44535000  F       0.00000000       0.00000000       0.00000000
Pd       9.22722207       4.29761474       5.41287912  F       0.00000000       0.00000000       0.00000000
Pd       4.92854537       4.97030607       7.39910624  T       0.00000000       0.00000000       0.00000000
Pd      10.45795264       6.76691053       1.50000000  F       0.00000000       0.00000000       0.00000000
Pd       0.00000000       7.38208422       3.44535000  F       0.00000000       0.00000000       0.00000000
Pd      10.43991375       6.78245558       5.40242713  F       0.00000000       0.00000000       0.00000000
Pd      12.25881636       7.45687969       7.39467317  T       0.00000000       0.00000000       0.00000000
Pd       4.92138948      11.07312632       3.44535000  F       0.00000000       0.00000000       0.00000000
Pd       1.23034737       9.84277895       3.44535000  F       0.00000000       0.00000000       0.00000000
Pd      11.67120661       9.23591801       5.37701028  F       0.00000000       0.00000000       0.00000000
Pd       1.17761354       9.80318276       7.35447087  T       0.00000000       0.00000000       0.00000000
Pd       0.61517368      11.68830001       1.50000000  F       0.00000000       0.00000000       0.00000000
Pd       2.46069474       0.00000000       3.44535000  F       0.00000000       0.00000000       0.00000000
Pd       2.40243608      -0.00392350       7.40011260  T       0.00000000       0.00000000       0.00000000
Pd       9.22719689      10.44932842       5.41286416  F       0.00000000       0.00000000       0.00000000
Pd       3.66527882       8.62532836       7.50925115  T       0.00000000       0.00000000       0.00000000
Pd       4.30621579       0.61517368       1.50000000  F       0.00000000       0.00000000       0.00000000
Pd      11.07312632       4.92138948       3.44535000  F       0.00000000       0.00000000       0.00000000
Pd       4.30621579       6.76691053       1.50000000  F       0.00000000       0.00000000       0.00000000
Pd       3.67147865       2.47322631       7.49570838  T       0.00000000       0.00000000       0.00000000
Pd       2.40421778       6.15229521       7.40322307  T       0.00000000       0.00000000       0.00000000
Pd       0.60433818       5.55187436       5.37993065  F       0.00000000       0.00000000       0.00000000
Pd       2.46069474       6.15173685       3.44535000  F       0.00000000       0.00000000       0.00000000
Pd       0.61517368       5.53656316       1.50000000  F       0.00000000       0.00000000       0.00000000
Pd       1.17904843       3.66340592       7.33405611  T       0.00000000       0.00000000       0.00000000
Pd      11.67123156       3.08419612       5.37703229  F       0.00000000       0.00000000       0.00000000
Pd       6.88462209       6.65961234       9.91756592  T       0.00000000       0.00000000       0.00000000
Pd       1.23034737       3.69104211       3.44535000  F       0.00000000       0.00000000       0.00000000
Pd      12.28669533       1.30079031       7.45730835  T       0.00000000       0.00000000       0.00000000
Pd      10.43990395       0.63072067       5.40242717  F       0.00000000       0.00000000       0.00000000
Pd       0.00000000       1.23034737       3.44535000  F       0.00000000       0.00000000       0.00000000
Pd       1.84552105       1.84552105       1.50000000  F       0.00000000       0.00000000       0.00000000
Pd      10.45795264       0.61517368       1.50000000  F       0.00000000       0.00000000       0.00000000
Pd      11.08009533      11.11340092       7.38707226  T       0.00000000       0.00000000       0.00000000
Pd       3.07550809      10.44932540       5.41290581  F       0.00000000       0.00000000       0.00000000
Pd       3.69104211       2.46069474       3.44535000  F       0.00000000       0.00000000       0.00000000
Pd       1.85442396       1.83305046       5.40626716  F       0.00000000       0.00000000       0.00000000
Pd      11.68830001       3.07586842       1.50000000  F       0.00000000       0.00000000       0.00000000
Pd       0.76081572       0.47934324       9.98601845  T       0.00000000       0.00000000       0.00000000
Pd       2.31977916       3.47018129       9.74089708  T       0.00000000       0.00000000       0.00000000
Pd       3.82061191       6.69986203       9.91923420  T       0.00000000       0.00000000       0.00000000
Pd       6.15173685       1.23034737       3.44535000  F       0.00000000       0.00000000       0.00000000
Pd       4.28818081       0.63072761       5.40241929  F       0.00000000       0.00000000       0.00000000
Pd       6.11252320       1.30551468       7.38984253  T       0.00000000       0.00000000       0.00000000
Pd       5.53656316       3.07586842       1.50000000  F       0.00000000       0.00000000       0.00000000
Pd       1.85444455       7.98478761       5.40627529  F       0.00000000       0.00000000       0.00000000
Pd       5.37786976       3.38764533       9.67788589  T       0.00000000       0.00000000       0.00000000
Pd       3.07586842      10.45795264       1.50000000  F       0.00000000       0.00000000       0.00000000
Pd       3.07586842       4.30621579       1.50000000  F       0.00000000       0.00000000       0.00000000
Pd       3.07547731       4.29761827       5.41291946  F       0.00000000       0.00000000       0.00000000
Pd      11.07614653       4.97211518       7.40400716  T       0.00000000       0.00000000       0.00000000
Pd      11.07312632      11.07312632       3.44535000  F       0.00000000       0.00000000       0.00000000
Pd       9.99458779       0.53722675       9.90949168  T       0.00000000       0.00000000       0.00000000
Pd       6.90879983       0.50325005       9.90899140  T       0.00000000       0.00000000       0.00000000
Pd       8.48285938       9.61205744       9.76401193  T       0.00000000       0.00000000       0.00000000
Pd       0.72858880       6.65748191       9.91552406  T       0.00000000       0.00000000       0.00000000
Pd       5.38051692       9.52868985       9.68203088  T       0.00000000       0.00000000       0.00000000
Pd      11.55473438       3.34763836       9.65717921  T       0.00000000       0.00000000       0.00000000
Pd       8.46445031       3.46311053       9.75273892  T       0.00000000       0.00000000       0.00000000
Pd       9.97591375       6.67642419       9.92021332  T       0.00000000       0.00000000       0.00000000
Pd       3.85171827       0.53935012       9.90869367  T       0.00000000       0.00000000       0.00000000
Pd       2.31973645       9.62803282       9.76304977  T       0.00000000       0.00000000       0.00000000
Pd       4.93124828      11.11679882       7.39488825  T       0.00000000       0.00000000       0.00000000
Pd      11.50340585       9.52629654       9.69340602  T       0.00000000       0.00000000       0.00000000
O        1.01389622      11.84736954      11.79989771  T       0.00000000       0.00000000       0.00000000
C       -0.11412156      11.31225135      12.42831570  T       0.00000000       0.00000000       0.00000000
H        0.22410914      10.97719705      13.43119060  T       0.00000000       0.00000000       0.00000000
H       -0.94745766      12.03690812      12.55442013  T       0.00000000       0.00000000       0.00000000
H       -0.52615557      10.40627390      11.89761730  T       0.00000000       0.00000000       0.00000000
