117
Lattice="12.303473692417112 0.0 0.0 0.0 12.303473692417114 0.0 0.0 0.0 29.165420746594243" Properties=species:S:1:pos:R:3:move_mask:L:1:momenta:R:3 adsorbate_info="_JSON {\"site\": {\"coordinates\": [0.8238779600188633, 7.724762918842758, 10.408221207036322], \"connectivity\": 2, \"topology\": [8, 14], \"n_vector\": [-0.04465744314575626, 0.04952152140427425, 0.9977741887268329], \"h_vector\": [-0.9999537908186625, -0.007650488943387738, -0.005821189424297384], \"site_formula\": {\"O\": 2}}, \"smiles\": \"ClOC\", \"mdf\": 2.1559388071084986, \"adsorbate_formula\": \"CH3O\"}" mace_E=-585.8781393311084 converged=T n_steps=53 d_min=2.135836913596852 site_type=unknown dE_rel_meV=0 original_idx=37 rank=0 E_MACE=-585.901712210141 pbc="T T T"
O        8.40002321      11.58228331       9.35691802  T       0.00000000       0.00000000       0.00000000
O       11.43305677       5.38628262       9.38366068  T       0.00000000       0.00000000       0.00000000
O       11.48316207       1.62798955      10.55178812  T       0.00000000       0.00000000       0.00000000
O       11.39823399      11.53645838       9.34159218  T       0.00000000       0.00000000       0.00000000
O        8.36623209       7.81149605      10.55105145  T       0.00000000       0.00000000       0.00000000
O        5.27668828      11.52558518       9.39833604  T       0.00000000       0.00000000       0.00000000
O        5.30506137       7.76309472      10.58657432  T       0.00000000       0.00000000       0.00000000
O        8.38934743       5.43036038       9.34130820  T       0.00000000       0.00000000       0.00000000
O       11.43331023       7.74900882      10.61211273  T       0.00000000       0.00000000       0.00000000
O        2.23248950       5.41862290       9.34584125  T       0.00000000       0.00000000       0.00000000
O        2.20937330       1.65562036      10.53610935  T       0.00000000       0.00000000       0.00000000
O        2.27758278      11.58468202       9.32485974  T       0.00000000       0.00000000       0.00000000
O        5.29446155       5.36717177       9.37111275  T       0.00000000       0.00000000       0.00000000
O        5.33055601       1.62830533      10.59240800  T       0.00000000       0.00000000       0.00000000
O        2.26705455       7.77175578      10.55914499  T       0.00000000       0.00000000       0.00000000
O        8.36348343       1.67066792      10.54661207  T       0.00000000       0.00000000       0.00000000
Pd       5.53656316       9.22760527       1.50000000  F       0.00000000       0.00000000       0.00000000
Pd       6.09015937       7.46502201       7.39672599  T       0.00000000       0.00000000       0.00000000
Pd       4.28815433       6.78245218       5.40241719  F       0.00000000       0.00000000       0.00000000
Pd       6.15173685       7.38208422       3.44535000  F       0.00000000       0.00000000       0.00000000
Pd       7.32160218       3.65366228       7.34227517  T       0.00000000       0.00000000       0.00000000
Pd       5.51948843       3.08419342       5.37702261  F       0.00000000       0.00000000       0.00000000
Pd       6.76691053       5.53656316       1.50000000  F       0.00000000       0.00000000       0.00000000
Pd       7.38208422       9.84277895       3.44535000  F       0.00000000       0.00000000       0.00000000
Pd       7.99725790       7.99725790       1.50000000  F       0.00000000       0.00000000       0.00000000
Pd       5.51951598       9.23590192       5.37700272  F       0.00000000       0.00000000       0.00000000
Pd       8.00616182       7.98477587       5.40628129  F       0.00000000       0.00000000       0.00000000
Pd       6.76691053      11.68830001       1.50000000  F       0.00000000       0.00000000       0.00000000
Pd       8.61243158       0.00000000       3.44535000  F       0.00000000       0.00000000       0.00000000
Pd       6.75606179      11.70364973       5.37992114  F       0.00000000       0.00000000       0.00000000
Pd       8.54074874      -0.01513387       7.40865960  T       0.00000000       0.00000000       0.00000000
Pd       9.84277895       8.61243158       3.44535000  F       0.00000000       0.00000000       0.00000000
Pd       7.38208422       3.69104211       3.44535000  F       0.00000000       0.00000000       0.00000000
Pd       3.69104211       8.61243158       3.44535000  F       0.00000000       0.00000000       0.00000000
Pd       9.83251610       8.62999296       7.53957826  T       0.00000000       0.00000000       0.00000000
Pd       9.22760527      10.45795264       1.50000000  F       0.00000000       0.00000000       0.00000000
Pd       7.33170850       9.79844742       7.35089698  T       0.00000000       0.00000000       0.00000000
Pd       1.84552105       7.99725790       1.50000000  F       0.00000000       0.00000000       0.00000000
Pd      11.68830001       9.22760527       1.50000000  F       0.00000000       0.00000000       0.00000000
Pd       0.60431863      11.70356305       5.37989931  F       0.00000000       0.00000000       0.00000000
Pd       8.61243158       6.15173685       3.44535000  F       0.00000000       0.00000000       0.00000000
Pd       6.75605293       5.55187564       5.37990856  F       0.00000000       0.00000000       0.00000000
Pd       8.54414290       6.15558272       7.40154529  T       0.00000000       0.00000000       0.00000000
Pd       7.99725790       1.84552105       1.50000000  F       0.00000000       0.00000000       0.00000000
Pd       9.84277895       2.46069474       3.44535000  F       0.00000000       0.00000000       0.00000000
Pd       8.00617313       1.83308050       5.40627808  F       0.00000000       0.00000000       0.00000000
Pd       9.80459551       2.46498854       7.50571677  T       0.00000000       0.00000000       0.00000000
Pd       9.22760527       4.30621579       1.50000000  F       0.00000000       0.00000000       0.00000000
Pd       4.92138948       4.92138948       3.44535000  F       0.00000000       0.00000000       0.00000000
Pd       9.22722207       4.29761474       5.41287912  F       0.00000000       0.00000000       0.00000000
Pd       4.91679742       4.96108314       7.38829757  T       0.00000000       0.00000000       0.00000000
Pd      10.45795264       6.76691053       1.50000000  F       0.00000000       0.00000000       0.00000000
Pd       0.00000000       7.38208422       3.44535000  F       0.00000000       0.00000000       0.00000000
Pd      10.43991375       6.78245558       5.40242713  F       0.00000000       0.00000000       0.00000000
Pd      12.25976888       7.45627134       7.38628043  T       0.00000000       0.00000000       0.00000000
Pd       4.92138948      11.07312632       3.44535000  F       0.00000000       0.00000000       0.00000000
Pd       1.23034737       9.84277895       3.44535000  F       0.00000000       0.00000000       0.00000000
Pd      11.67120661       9.23591801       5.37701028  F       0.00000000       0.00000000       0.00000000
Pd       1.16922065       9.80745703       7.36374386  T       0.00000000       0.00000000       0.00000000
Pd       0.61517368      11.68830001       1.50000000  F       0.00000000       0.00000000       0.00000000
Pd       2.46069474       0.00000000       3.44535000  F       0.00000000       0.00000000       0.00000000
Pd       2.40452921      -0.01583627       7.39365719  T       0.00000000       0.00000000       0.00000000
Pd       9.22719689      10.44932842       5.41286416  F       0.00000000       0.00000000       0.00000000
Pd       3.63976730       8.62980125       7.54010134  T       0.00000000       0.00000000       0.00000000
Pd       4.30621579       0.61517368       1.50000000  F       0.00000000       0.00000000       0.00000000
Pd      11.07312632       4.92138948       3.44535000  F       0.00000000       0.00000000       0.00000000
Pd       4.30621579       6.76691053       1.50000000  F       0.00000000       0.00000000       0.00000000
Pd       3.65610386       2.46479124       7.50501964  T       0.00000000       0.00000000       0.00000000
Pd       2.38985537       6.14131823       7.40552898  T       0.00000000       0.00000000       0.00000000
Pd       0.60433818       5.55187436       5.37993065  F       0.00000000       0.00000000       0.00000000
Pd       2.46069474       6.15173685       3.44535000  F       0.00000000       0.00000000       0.00000000
Pd       0.61517368       5.53656316       1.50000000  F       0.00000000       0.00000000       0.00000000
Pd       1.16235573       3.65140445       7.33996855  T       0.00000000       0.00000000       0.00000000
Pd      11.67123156       3.08419612       5.37703229  F       0.00000000       0.00000000       0.00000000
Pd       6.83472583       6.64385427       9.91361037  T       0.00000000       0.00000000       0.00000000
Pd       1.23034737       3.69104211       3.44535000  F       0.00000000       0.00000000       0.00000000
Pd      12.25666363       1.29789836       7.38437616  T       0.00000000       0.00000000       0.00000000
Pd      10.43990395       0.63072067       5.40242717  F       0.00000000       0.00000000       0.00000000
Pd       0.00000000       1.23034737       3.44535000  F       0.00000000       0.00000000       0.00000000
Pd       1.84552105       1.84552105       1.50000000  F       0.00000000       0.00000000       0.00000000
Pd      10.45795264       0.61517368       1.50000000  F       0.00000000       0.00000000       0.00000000
Pd      11.06687164      11.11001720       7.38364699  T       0.00000000       0.00000000       0.00000000
Pd       3.07550809      10.44932540       5.41290581  F       0.00000000       0.00000000       0.00000000
Pd       3.69104211       2.46069474       3.44535000  F       0.00000000       0.00000000       0.00000000
Pd       1.85442396       1.83305046       5.40626716  F       0.00000000       0.00000000       0.00000000
Pd      11.68830001       3.07586842       1.50000000  F       0.00000000       0.00000000       0.00000000
Pd       0.68840964       0.47344751       9.90439300  T       0.00000000       0.00000000       0.00000000
Pd       2.24216747       3.43978171       9.75543222  T       0.00000000       0.00000000       0.00000000
Pd       3.78321673       6.64372477       9.91162969  T       0.00000000       0.00000000       0.00000000
Pd       6.15173685       1.23034737       3.44535000  F       0.00000000       0.00000000       0.00000000
Pd       4.28818081       0.63072761       5.40241929  F       0.00000000       0.00000000       0.00000000
Pd       6.10414491       1.30213454       7.39793177  T       0.00000000       0.00000000       0.00000000
Pd       5.53656316       3.07586842       1.50000000  F       0.00000000       0.00000000       0.00000000
Pd       1.85444455       7.98478761       5.40627529  F       0.00000000       0.00000000       0.00000000
Pd       5.33947629       3.35875192       9.68668825  T       0.00000000       0.00000000       0.00000000
Pd       3.07586842      10.45795264       1.50000000  F       0.00000000       0.00000000       0.00000000
Pd       3.07586842       4.30621579       1.50000000  F       0.00000000       0.00000000       0.00000000
Pd       3.07547731       4.29761827       5.41291946  F       0.00000000       0.00000000       0.00000000
Pd      11.06414076       4.97202889       7.39678456  T       0.00000000       0.00000000       0.00000000
Pd      11.07312632      11.07312632       3.44535000  F       0.00000000       0.00000000       0.00000000
Pd       9.92339459       0.53369157       9.91200983  T       0.00000000       0.00000000       0.00000000
Pd       6.83881304       0.48416220       9.93118996  T       0.00000000       0.00000000       0.00000000
Pd       8.42827788       9.60096462       9.77346688  T       0.00000000       0.00000000       0.00000000
Pd       0.68164145       6.64812953       9.92362073  T       0.00000000       0.00000000       0.00000000
Pd       5.27950791       9.51437674       9.71621902  T       0.00000000       0.00000000       0.00000000
Pd      11.48671579       3.36854274       9.67076578  T       0.00000000       0.00000000       0.00000000
Pd       8.40129230       3.45471816       9.76233633  T       0.00000000       0.00000000       0.00000000
Pd       9.91696678       6.66356880       9.92234883  T       0.00000000       0.00000000       0.00000000
Pd       3.78370626       0.52935864       9.92263517  T       0.00000000       0.00000000       0.00000000
Pd       2.33091999       9.59575214       9.82599200  T       0.00000000       0.00000000       0.00000000
Pd       4.93153656      11.10982555       7.40392924  T       0.00000000       0.00000000       0.00000000
Pd      11.40420809       9.53334512       9.78790938  T       0.00000000       0.00000000       0.00000000
O        0.67262316      10.08948434      11.09053506  T       0.00000000       0.00000000       0.00000000
C        0.66767863       9.62645051      12.44795768  T       0.00000000       0.00000000       0.00000000
H        1.22252588      10.36421069      13.05651955  T       0.00000000       0.00000000       0.00000000
H       -0.37274475       9.57111592      12.81454145  T       0.00000000       0.00000000       0.00000000
H        1.14044512       8.63436247      12.55025176  T       0.00000000       0.00000000       0.00000000
