117
Lattice="12.303473692417112 0.0 0.0 0.0 12.303473692417114 0.0 0.0 0.0 29.165420746594243" Properties=species:S:1:pos:R:3:move_mask:L:1:momenta:R:3 adsorbate_info="_JSON {\"site\": {\"coordinates\": [6.4715011704330125, 8.914128470343867, 9.901594172720424], \"connectivity\": 3, \"topology\": [6, 102, 104], \"n_vector\": [0.04951682945564413, 0.3464632986288594, 0.9367557132485878], \"h_vector\": [-0.0047474946455296, 0.9138347749370305, -0.4060584507313912], \"site_formula\": {\"O\": 1, \"Pd\": 2}}, \"smiles\": \"ClOC\", \"mdf\": 2.099467437733897, \"adsorbate_formula\": \"CH3O\"}" mace_E=-585.8642872650597 converged=T n_steps=52 d_min=2.0408419155516837 site_type=unknown dE_rel_meV=0 original_idx=260 rank=250 E_MACE=-585.4178994151389 pbc="T T T"
O        8.46001831      11.57298361       9.31478884  T       0.00000000       0.00000000       0.00000000
O       11.48071728       5.35253268       9.36534392  T       0.00000000       0.00000000       0.00000000
O       11.51523624       1.61088782      10.58003530  T       0.00000000       0.00000000       0.00000000
O       11.45667453      11.51019858       9.38162791  T       0.00000000       0.00000000       0.00000000
O        8.45356463       7.76450878      10.55390328  T       0.00000000       0.00000000       0.00000000
O        5.28185979      11.51419905       9.35041700  T       0.00000000       0.00000000       0.00000000
O        5.32399835       7.72734391      10.62338205  T       0.00000000       0.00000000       0.00000000
O        8.42395981       5.40582902       9.34731670  T       0.00000000       0.00000000       0.00000000
O       11.50887340       7.75006712      10.57078089  T       0.00000000       0.00000000       0.00000000
O        2.27882573       5.40525377       9.33639064  T       0.00000000       0.00000000       0.00000000
O        2.23976282       1.64552575      10.54149482  T       0.00000000       0.00000000       0.00000000
O        2.27933356      11.55723013       9.35622828  T       0.00000000       0.00000000       0.00000000
O        5.31806419       5.36229095       9.38054548  T       0.00000000       0.00000000       0.00000000
O        5.36327307       1.60516429      10.55433781  T       0.00000000       0.00000000       0.00000000
O        2.25498900       7.78773432      10.54753938  T       0.00000000       0.00000000       0.00000000
O        8.39433970       1.64058781      10.53123083  T       0.00000000       0.00000000       0.00000000
Pd       5.53656316       9.22760527       1.50000000  F       0.00000000       0.00000000       0.00000000
Pd       6.12062754       7.45198947       7.39033051  T       0.00000000       0.00000000       0.00000000
Pd       4.28815433       6.78245218       5.40241719  F       0.00000000       0.00000000       0.00000000
Pd       6.15173685       7.38208422       3.44535000  F       0.00000000       0.00000000       0.00000000
Pd       7.31784848       3.64607210       7.34423871  T       0.00000000       0.00000000       0.00000000
Pd       5.51948843       3.08419342       5.37702261  F       0.00000000       0.00000000       0.00000000
Pd       6.76691053       5.53656316       1.50000000  F       0.00000000       0.00000000       0.00000000
Pd       7.38208422       9.84277895       3.44535000  F       0.00000000       0.00000000       0.00000000
Pd       7.99725790       7.99725790       1.50000000  F       0.00000000       0.00000000       0.00000000
Pd       5.51951598       9.23590192       5.37700272  F       0.00000000       0.00000000       0.00000000
Pd       8.00616182       7.98477587       5.40628129  F       0.00000000       0.00000000       0.00000000
Pd       6.76691053      11.68830001       1.50000000  F       0.00000000       0.00000000       0.00000000
Pd       8.61243158       0.00000000       3.44535000  F       0.00000000       0.00000000       0.00000000
Pd       6.75606179      11.70364973       5.37992114  F       0.00000000       0.00000000       0.00000000
Pd       8.56187415      -0.01539711       7.38984316  T       0.00000000       0.00000000       0.00000000
Pd       9.84277895       8.61243158       3.44535000  F       0.00000000       0.00000000       0.00000000
Pd       7.38208422       3.69104211       3.44535000  F       0.00000000       0.00000000       0.00000000
Pd       3.69104211       8.61243158       3.44535000  F       0.00000000       0.00000000       0.00000000
Pd       9.79365605       8.62879336       7.52723061  T       0.00000000       0.00000000       0.00000000
Pd       9.22760527      10.45795264       1.50000000  F       0.00000000       0.00000000       0.00000000
Pd       7.31957098       9.80974050       7.36095171  T       0.00000000       0.00000000       0.00000000
Pd       1.84552105       7.99725790       1.50000000  F       0.00000000       0.00000000       0.00000000
Pd      11.68830001       9.22760527       1.50000000  F       0.00000000       0.00000000       0.00000000
Pd       0.60431863      11.70356305       5.37989931  F       0.00000000       0.00000000       0.00000000
Pd       8.61243158       6.15173685       3.44535000  F       0.00000000       0.00000000       0.00000000
Pd       6.75605293       5.55187564       5.37990856  F       0.00000000       0.00000000       0.00000000
Pd       8.55038599       6.13578451       7.40666001  T       0.00000000       0.00000000       0.00000000
Pd       7.99725790       1.84552105       1.50000000  F       0.00000000       0.00000000       0.00000000
Pd       9.84277895       2.46069474       3.44535000  F       0.00000000       0.00000000       0.00000000
Pd       8.00617313       1.83308050       5.40627808  F       0.00000000       0.00000000       0.00000000
Pd       9.81302353       2.46207870       7.49866041  T       0.00000000       0.00000000       0.00000000
Pd       9.22760527       4.30621579       1.50000000  F       0.00000000       0.00000000       0.00000000
Pd       4.92138948       4.92138948       3.44535000  F       0.00000000       0.00000000       0.00000000
Pd       9.22722207       4.29761474       5.41287912  F       0.00000000       0.00000000       0.00000000
Pd       4.91983779       4.96957080       7.39747297  T       0.00000000       0.00000000       0.00000000
Pd      10.45795264       6.76691053       1.50000000  F       0.00000000       0.00000000       0.00000000
Pd       0.00000000       7.38208422       3.44535000  F       0.00000000       0.00000000       0.00000000
Pd      10.43991375       6.78245558       5.40242713  F       0.00000000       0.00000000       0.00000000
Pd      12.24242902       7.46199570       7.39697832  T       0.00000000       0.00000000       0.00000000
Pd       4.92138948      11.07312632       3.44535000  F       0.00000000       0.00000000       0.00000000
Pd       1.23034737       9.84277895       3.44535000  F       0.00000000       0.00000000       0.00000000
Pd      11.67120661       9.23591801       5.37701028  F       0.00000000       0.00000000       0.00000000
Pd       1.19163407       9.79253101       7.35084053  T       0.00000000       0.00000000       0.00000000
Pd       0.61517368      11.68830001       1.50000000  F       0.00000000       0.00000000       0.00000000
Pd       2.46069474       0.00000000       3.44535000  F       0.00000000       0.00000000       0.00000000
Pd       2.39672935      -0.01830301       7.41122099  T       0.00000000       0.00000000       0.00000000
Pd       9.22719689      10.44932842       5.41286416  F       0.00000000       0.00000000       0.00000000
Pd       3.69751434       8.62100574       7.53982056  T       0.00000000       0.00000000       0.00000000
Pd       4.30621579       0.61517368       1.50000000  F       0.00000000       0.00000000       0.00000000
Pd      11.07312632       4.92138948       3.44535000  F       0.00000000       0.00000000       0.00000000
Pd       4.30621579       6.76691053       1.50000000  F       0.00000000       0.00000000       0.00000000
Pd       3.66125146       2.46008411       7.49484921  T       0.00000000       0.00000000       0.00000000
Pd       2.39780331       6.15334133       7.40290591  T       0.00000000       0.00000000       0.00000000
Pd       0.60433818       5.55187436       5.37993065  F       0.00000000       0.00000000       0.00000000
Pd       2.46069474       6.15173685       3.44535000  F       0.00000000       0.00000000       0.00000000
Pd       0.61517368       5.53656316       1.50000000  F       0.00000000       0.00000000       0.00000000
Pd       1.17217222       3.65202468       7.34124362  T       0.00000000       0.00000000       0.00000000
Pd      11.67123156       3.08419612       5.37703229  F       0.00000000       0.00000000       0.00000000
Pd       6.87169692       6.63048312       9.92472252  T       0.00000000       0.00000000       0.00000000
Pd       1.23034737       3.69104211       3.44535000  F       0.00000000       0.00000000       0.00000000
Pd      12.25955647       1.30109379       7.39696564  T       0.00000000       0.00000000       0.00000000
Pd      10.43990395       0.63072067       5.40242717  F       0.00000000       0.00000000       0.00000000
Pd       0.00000000       1.23034737       3.44535000  F       0.00000000       0.00000000       0.00000000
Pd       1.84552105       1.84552105       1.50000000  F       0.00000000       0.00000000       0.00000000
Pd      10.45795264       0.61517368       1.50000000  F       0.00000000       0.00000000       0.00000000
Pd      11.08979000      11.10738746       7.39357641  T       0.00000000       0.00000000       0.00000000
Pd       3.07550809      10.44932540       5.41290581  F       0.00000000       0.00000000       0.00000000
Pd       3.69104211       2.46069474       3.44535000  F       0.00000000       0.00000000       0.00000000
Pd       1.85442396       1.83305046       5.40626716  F       0.00000000       0.00000000       0.00000000
Pd      11.68830001       3.07586842       1.50000000  F       0.00000000       0.00000000       0.00000000
Pd       0.71691676       0.46360491       9.92008685  T       0.00000000       0.00000000       0.00000000
Pd       2.28195478       3.42694568       9.75059675  T       0.00000000       0.00000000       0.00000000
Pd       3.80829409       6.64322073       9.92233321  T       0.00000000       0.00000000       0.00000000
Pd       6.15173685       1.23034737       3.44535000  F       0.00000000       0.00000000       0.00000000
Pd       4.28818081       0.63072761       5.40241929  F       0.00000000       0.00000000       0.00000000
Pd       6.10757668       1.28983881       7.38956933  T       0.00000000       0.00000000       0.00000000
Pd       5.53656316       3.07586842       1.50000000  F       0.00000000       0.00000000       0.00000000
Pd       1.85444455       7.98478761       5.40627529  F       0.00000000       0.00000000       0.00000000
Pd       5.36087958       3.34218074       9.66324610  T       0.00000000       0.00000000       0.00000000
Pd       3.07586842      10.45795264       1.50000000  F       0.00000000       0.00000000       0.00000000
Pd       3.07586842       4.30621579       1.50000000  F       0.00000000       0.00000000       0.00000000
Pd       3.07547731       4.29761827       5.41291946  F       0.00000000       0.00000000       0.00000000
Pd      11.07186075       4.95695019       7.38760814  T       0.00000000       0.00000000       0.00000000
Pd      11.07312632      11.07312632       3.44535000  F       0.00000000       0.00000000       0.00000000
Pd       9.96598208       0.51256386       9.91465072  T       0.00000000       0.00000000       0.00000000
Pd       6.87348799       0.45602451       9.90692679  T       0.00000000       0.00000000       0.00000000
Pd       8.51487408       9.57989859       9.80935098  T       0.00000000       0.00000000       0.00000000
Pd       0.72406316       6.61916835       9.90360269  T       0.00000000       0.00000000       0.00000000
Pd       5.28995847       9.51604624       9.80846069  T       0.00000000       0.00000000       0.00000000
Pd      11.51656347       3.34323936       9.67959718  T       0.00000000       0.00000000       0.00000000
Pd       8.43125762       3.42637777       9.75381497  T       0.00000000       0.00000000       0.00000000
Pd       9.97370758       6.63364726       9.90762320  T       0.00000000       0.00000000       0.00000000
Pd       3.80371162       0.50688864       9.91697989  T       0.00000000       0.00000000       0.00000000
Pd       2.31255605       9.57783517       9.77118780  T       0.00000000       0.00000000       0.00000000
Pd       4.91484024      11.10440330       7.39125810  T       0.00000000       0.00000000       0.00000000
Pd      11.48148379       9.49528705       9.68823251  T       0.00000000       0.00000000       0.00000000
O        6.89046968      10.08723133      11.09802279  T       0.00000000       0.00000000       0.00000000
C        6.91816647       9.68863503      12.47887042  T       0.00000000       0.00000000       0.00000000
H        7.22702149      10.56835312      13.07437386  T       0.00000000       0.00000000       0.00000000
H        5.91311985       9.36702810      12.80487061  T       0.00000000       0.00000000       0.00000000
H        7.63160793       8.86374160      12.64989786  T       0.00000000       0.00000000       0.00000000
