117
Lattice="12.303473692417112 0.0 0.0 0.0 12.303473692417114 0.0 0.0 0.0 29.165420746594243" Properties=species:S:1:pos:R:3:move_mask:L:1:momenta:R:3 adsorbate_info="_JSON {\"site\": {\"coordinates\": [6.471514351177532, 2.762390650152007, 9.901598426890697], \"connectivity\": 3, \"topology\": [13, 94, 106], \"n_vector\": [0.0717998517719375, 0.349858217864363, 0.9340471126652551], \"h_vector\": [-0.004778466908353023, 0.9138290446063153, -0.4060709833119263], \"site_formula\": {\"O\": 1, \"Pd\": 2}}, \"smiles\": \"ClOC\", \"mdf\": 2.266149051351901, \"adsorbate_formula\": \"CH3O\"}" mace_E=-585.8852177498937 converged=T n_steps=48 d_min=2.04070970059557 site_type=unknown dE_rel_meV=0 original_idx=255 rank=247 E_MACE=-585.4180455544818 pbc="T T T"
O        8.39195269      11.55803586       9.34326569  T       0.00000000       0.00000000       0.00000000
O       11.43436090       5.36512931       9.38889882  T       0.00000000       0.00000000       0.00000000
O       11.47355891       1.60103038      10.57338535  T       0.00000000       0.00000000       0.00000000
O       11.45355261      11.50642241       9.36561241  T       0.00000000       0.00000000       0.00000000
O        8.37105484       7.79391917      10.53599239  T       0.00000000       0.00000000       0.00000000
O        5.28988741      11.52455129       9.38418060  T       0.00000000       0.00000000       0.00000000
O        5.33695737       7.76716445      10.55428943  T       0.00000000       0.00000000       0.00000000
O        8.43230951       5.41779880       9.33239812  T       0.00000000       0.00000000       0.00000000
O       11.49066780       7.76873526      10.58600514  T       0.00000000       0.00000000       0.00000000
O        2.25553322       5.41444406       9.35481749  T       0.00000000       0.00000000       0.00000000
O        2.22245689       1.64650801      10.54867832  T       0.00000000       0.00000000       0.00000000
O        2.25387223      11.57123726       9.33615173  T       0.00000000       0.00000000       0.00000000
O        5.25929986       5.36851243       9.34785828  T       0.00000000       0.00000000       0.00000000
O        5.29655003       1.58386570      10.62154720  T       0.00000000       0.00000000       0.00000000
O        2.21835441       7.80732689      10.54281871  T       0.00000000       0.00000000       0.00000000
O        8.42408953       1.60543520      10.56269768  T       0.00000000       0.00000000       0.00000000
Pd       5.53656316       9.22760527       1.50000000  F       0.00000000       0.00000000       0.00000000
Pd       6.10542697       7.44918148       7.38792450  T       0.00000000       0.00000000       0.00000000
Pd       4.28815433       6.78245218       5.40241719  F       0.00000000       0.00000000       0.00000000
Pd       6.15173685       7.38208422       3.44535000  F       0.00000000       0.00000000       0.00000000
Pd       7.31999842       3.65512572       7.36213683  T       0.00000000       0.00000000       0.00000000
Pd       5.51948843       3.08419342       5.37702261  F       0.00000000       0.00000000       0.00000000
Pd       6.76691053       5.53656316       1.50000000  F       0.00000000       0.00000000       0.00000000
Pd       7.38208422       9.84277895       3.44535000  F       0.00000000       0.00000000       0.00000000
Pd       7.99725790       7.99725790       1.50000000  F       0.00000000       0.00000000       0.00000000
Pd       5.51951598       9.23590192       5.37700272  F       0.00000000       0.00000000       0.00000000
Pd       8.00616182       7.98477587       5.40628129  F       0.00000000       0.00000000       0.00000000
Pd       6.76691053      11.68830001       1.50000000  F       0.00000000       0.00000000       0.00000000
Pd       8.61243158       0.00000000       3.44535000  F       0.00000000       0.00000000       0.00000000
Pd       6.75606179      11.70364973       5.37992114  F       0.00000000       0.00000000       0.00000000
Pd       8.54263223      -0.01201783       7.40616616  T       0.00000000       0.00000000       0.00000000
Pd       9.84277895       8.61243158       3.44535000  F       0.00000000       0.00000000       0.00000000
Pd       7.38208422       3.69104211       3.44535000  F       0.00000000       0.00000000       0.00000000
Pd       3.69104211       8.61243158       3.44535000  F       0.00000000       0.00000000       0.00000000
Pd       9.80583244       8.60849518       7.50058355  T       0.00000000       0.00000000       0.00000000
Pd       9.22760527      10.45795264       1.50000000  F       0.00000000       0.00000000       0.00000000
Pd       7.31403872       9.80315398       7.33979163  T       0.00000000       0.00000000       0.00000000
Pd       1.84552105       7.99725790       1.50000000  F       0.00000000       0.00000000       0.00000000
Pd      11.68830001       9.22760527       1.50000000  F       0.00000000       0.00000000       0.00000000
Pd       0.60431863      11.70356305       5.37989931  F       0.00000000       0.00000000       0.00000000
Pd       8.61243158       6.15173685       3.44535000  F       0.00000000       0.00000000       0.00000000
Pd       6.75605293       5.55187564       5.37990856  F       0.00000000       0.00000000       0.00000000
Pd       8.55351993       6.12869794       7.40214393  T       0.00000000       0.00000000       0.00000000
Pd       7.99725790       1.84552105       1.50000000  F       0.00000000       0.00000000       0.00000000
Pd       9.84277895       2.46069474       3.44535000  F       0.00000000       0.00000000       0.00000000
Pd       8.00617313       1.83308050       5.40627808  F       0.00000000       0.00000000       0.00000000
Pd       9.78739745       2.47790087       7.53602872  T       0.00000000       0.00000000       0.00000000
Pd       9.22760527       4.30621579       1.50000000  F       0.00000000       0.00000000       0.00000000
Pd       4.92138948       4.92138948       3.44535000  F       0.00000000       0.00000000       0.00000000
Pd       9.22722207       4.29761474       5.41287912  F       0.00000000       0.00000000       0.00000000
Pd       4.91876118       4.95388898       7.38573765  T       0.00000000       0.00000000       0.00000000
Pd      10.45795264       6.76691053       1.50000000  F       0.00000000       0.00000000       0.00000000
Pd       0.00000000       7.38208422       3.44535000  F       0.00000000       0.00000000       0.00000000
Pd      10.43991375       6.78245558       5.40242713  F       0.00000000       0.00000000       0.00000000
Pd      12.25934644       7.45547571       7.39467214  T       0.00000000       0.00000000       0.00000000
Pd       4.92138948      11.07312632       3.44535000  F       0.00000000       0.00000000       0.00000000
Pd       1.23034737       9.84277895       3.44535000  F       0.00000000       0.00000000       0.00000000
Pd      11.67120661       9.23591801       5.37701028  F       0.00000000       0.00000000       0.00000000
Pd       1.17153469       9.80784240       7.34013735  T       0.00000000       0.00000000       0.00000000
Pd       0.61517368      11.68830001       1.50000000  F       0.00000000       0.00000000       0.00000000
Pd       2.46069474       0.00000000       3.44535000  F       0.00000000       0.00000000       0.00000000
Pd       2.39639059       0.00687894       7.40162463  T       0.00000000       0.00000000       0.00000000
Pd       9.22719689      10.44932842       5.41286416  F       0.00000000       0.00000000       0.00000000
Pd       3.65597886       8.61615783       7.50072886  T       0.00000000       0.00000000       0.00000000
Pd       4.30621579       0.61517368       1.50000000  F       0.00000000       0.00000000       0.00000000
Pd      11.07312632       4.92138948       3.44535000  F       0.00000000       0.00000000       0.00000000
Pd       4.30621579       6.76691053       1.50000000  F       0.00000000       0.00000000       0.00000000
Pd       3.68867448       2.47780626       7.54466734  T       0.00000000       0.00000000       0.00000000
Pd       2.39367600       6.13614703       7.40883613  T       0.00000000       0.00000000       0.00000000
Pd       0.60433818       5.55187436       5.37993065  F       0.00000000       0.00000000       0.00000000
Pd       2.46069474       6.15173685       3.44535000  F       0.00000000       0.00000000       0.00000000
Pd       0.61517368       5.53656316       1.50000000  F       0.00000000       0.00000000       0.00000000
Pd       1.18024200       3.64493347       7.34867881  T       0.00000000       0.00000000       0.00000000
Pd      11.67123156       3.08419612       5.37703229  F       0.00000000       0.00000000       0.00000000
Pd       6.84779571       6.61122415       9.90955505  T       0.00000000       0.00000000       0.00000000
Pd       1.23034737       3.69104211       3.44535000  F       0.00000000       0.00000000       0.00000000
Pd      12.24200909       1.30870773       7.38959299  T       0.00000000       0.00000000       0.00000000
Pd      10.43990395       0.63072067       5.40242717  F       0.00000000       0.00000000       0.00000000
Pd       0.00000000       1.23034737       3.44535000  F       0.00000000       0.00000000       0.00000000
Pd       1.84552105       1.84552105       1.50000000  F       0.00000000       0.00000000       0.00000000
Pd      10.45795264       0.61517368       1.50000000  F       0.00000000       0.00000000       0.00000000
Pd      11.06951198      11.10711126       7.38676613  T       0.00000000       0.00000000       0.00000000
Pd       3.07550809      10.44932540       5.41290581  F       0.00000000       0.00000000       0.00000000
Pd       3.69104211       2.46069474       3.44535000  F       0.00000000       0.00000000       0.00000000
Pd       1.85442396       1.83305046       5.40626716  F       0.00000000       0.00000000       0.00000000
Pd      11.68830001       3.07586842       1.50000000  F       0.00000000       0.00000000       0.00000000
Pd       0.69475307       0.47660800       9.90292608  T       0.00000000       0.00000000       0.00000000
Pd       2.28100269       3.43360020       9.77139070  T       0.00000000       0.00000000       0.00000000
Pd       3.77966572       6.67008788       9.91463686  T       0.00000000       0.00000000       0.00000000
Pd       6.15173685       1.23034737       3.44535000  F       0.00000000       0.00000000       0.00000000
Pd       4.28818081       0.63072761       5.40241929  F       0.00000000       0.00000000       0.00000000
Pd       6.11240350       1.30266072       7.38879556  T       0.00000000       0.00000000       0.00000000
Pd       5.53656316       3.07586842       1.50000000  F       0.00000000       0.00000000       0.00000000
Pd       1.85444455       7.98478761       5.40627529  F       0.00000000       0.00000000       0.00000000
Pd       5.26806084       3.36791859       9.80388475  T       0.00000000       0.00000000       0.00000000
Pd       3.07586842      10.45795264       1.50000000  F       0.00000000       0.00000000       0.00000000
Pd       3.07586842       4.30621579       1.50000000  F       0.00000000       0.00000000       0.00000000
Pd       3.07547731       4.29761827       5.41291946  F       0.00000000       0.00000000       0.00000000
Pd      11.08502397       4.95861102       7.39816556  T       0.00000000       0.00000000       0.00000000
Pd      11.07312632      11.07312632       3.44535000  F       0.00000000       0.00000000       0.00000000
Pd       9.94554688       0.48009463       9.90889775  T       0.00000000       0.00000000       0.00000000
Pd       6.84402385       0.47955187       9.92668467  T       0.00000000       0.00000000       0.00000000
Pd       8.40344562       9.57626883       9.75125767  T       0.00000000       0.00000000       0.00000000
Pd       0.69560119       6.62149832       9.92690951  T       0.00000000       0.00000000       0.00000000
Pd       5.33775049       9.50727890       9.67495033  T       0.00000000       0.00000000       0.00000000
Pd      11.44643081       3.34938639       9.70000002  T       0.00000000       0.00000000       0.00000000
Pd       8.47748750       3.42569365       9.83152476  T       0.00000000       0.00000000       0.00000000
Pd       9.94161356       6.66790821       9.92474650  T       0.00000000       0.00000000       0.00000000
Pd       3.77681792       0.50245692       9.92475369  T       0.00000000       0.00000000       0.00000000
Pd       2.25929119       9.58998858       9.75442546  T       0.00000000       0.00000000       0.00000000
Pd       4.91629769      11.12081467       7.39732243  T       0.00000000       0.00000000       0.00000000
Pd      11.49986829       9.49539742       9.67718654  T       0.00000000       0.00000000       0.00000000
O        6.82959456       3.92284877      11.12132730  T       0.00000000       0.00000000       0.00000000
C        6.81901252       3.44271446      12.47303493  T       0.00000000       0.00000000       0.00000000
H        7.46284226       4.11153010      13.07548042  T       0.00000000       0.00000000       0.00000000
H        5.79070776       3.48931657      12.87553803  T       0.00000000       0.00000000       0.00000000
H        7.18595017       2.40442431      12.54772439  T       0.00000000       0.00000000       0.00000000
