117
Lattice="12.303473692417112 0.0 0.0 0.0 12.303473692417114 0.0 0.0 0.0 29.165420746594243" Properties=species:S:1:pos:R:3:move_mask:L:1:momenta:R:3 adsorbate_info="_JSON {\"site\": {\"coordinates\": [0.057110702782321075, 7.131130730072998, 10.116437076830255], \"connectivity\": 2, \"topology\": [8, 103], \"n_vector\": [0.0447525692824389, -0.2444863692974992, 0.9686194416644481], \"h_vector\": [-0.7623041165784519, 0.5820884411187257, 0.28295844317411306], \"site_formula\": {\"O\": 1, \"Pd\": 1}}, \"smiles\": \"ClOC\", \"mdf\": 1.9795995178013863, \"adsorbate_formula\": \"CH3O\"}" mace_E=-585.403199402356 converged=T n_steps=60 d_min=2.1278778445341504 site_type=unknown dE_rel_meV=0 original_idx=10 rank=5 E_MACE=-585.8957555874833 pbc="T T T"
O        8.42700511      11.63134694       9.36083837  T       0.00000000       0.00000000       0.00000000
O       11.43763277       5.44188465       9.34824035  T       0.00000000       0.00000000       0.00000000
O       11.49923845       1.68958816      10.56934755  T       0.00000000       0.00000000       0.00000000
O       11.46346692      11.58021338       9.37776438  T       0.00000000       0.00000000       0.00000000
O        8.38835233       7.86794741      10.55241547  T       0.00000000       0.00000000       0.00000000
O        5.30511872      11.59209437       9.36849125  T       0.00000000       0.00000000       0.00000000
O        5.35202823       7.84642150      10.58960406  T       0.00000000       0.00000000       0.00000000
O        8.42065000       5.48567460       9.35751922  T       0.00000000       0.00000000       0.00000000
O       11.47943499       7.84480988      10.58791067  T       0.00000000       0.00000000       0.00000000
O        2.27958666       5.50141692       9.35049978  T       0.00000000       0.00000000       0.00000000
O        2.24813655       1.71930225      10.53101943  T       0.00000000       0.00000000       0.00000000
O        2.27377341      11.63032526       9.36178141  T       0.00000000       0.00000000       0.00000000
O        5.29178932       5.45261889       9.37952737  T       0.00000000       0.00000000       0.00000000
O        5.35263233       1.69457287      10.55336432  T       0.00000000       0.00000000       0.00000000
O        2.25919251       7.88710790      10.59272591  T       0.00000000       0.00000000       0.00000000
O        8.40000186       1.71212813      10.53747614  T       0.00000000       0.00000000       0.00000000
Pd       5.53656316       9.22760527       1.50000000  F       0.00000000       0.00000000       0.00000000
Pd       6.10369663       7.46546834       7.38737661  T       0.00000000       0.00000000       0.00000000
Pd       4.28815433       6.78245218       5.40241719  F       0.00000000       0.00000000       0.00000000
Pd       6.15173685       7.38208422       3.44535000  F       0.00000000       0.00000000       0.00000000
Pd       7.31890378       3.66230224       7.35438984  T       0.00000000       0.00000000       0.00000000
Pd       5.51948843       3.08419342       5.37702261  F       0.00000000       0.00000000       0.00000000
Pd       6.76691053       5.53656316       1.50000000  F       0.00000000       0.00000000       0.00000000
Pd       7.38208422       9.84277895       3.44535000  F       0.00000000       0.00000000       0.00000000
Pd       7.99725790       7.99725790       1.50000000  F       0.00000000       0.00000000       0.00000000
Pd       5.51951598       9.23590192       5.37700272  F       0.00000000       0.00000000       0.00000000
Pd       8.00616182       7.98477587       5.40628129  F       0.00000000       0.00000000       0.00000000
Pd       6.76691053      11.68830001       1.50000000  F       0.00000000       0.00000000       0.00000000
Pd       8.61243158       0.00000000       3.44535000  F       0.00000000       0.00000000       0.00000000
Pd       6.75606179      11.70364973       5.37992114  F       0.00000000       0.00000000       0.00000000
Pd       8.54402628       0.00113615       7.40651417  T       0.00000000       0.00000000       0.00000000
Pd       9.84277895       8.61243158       3.44535000  F       0.00000000       0.00000000       0.00000000
Pd       7.38208422       3.69104211       3.44535000  F       0.00000000       0.00000000       0.00000000
Pd       3.69104211       8.61243158       3.44535000  F       0.00000000       0.00000000       0.00000000
Pd       9.81207120       8.63212700       7.50373364  T       0.00000000       0.00000000       0.00000000
Pd       9.22760527      10.45795264       1.50000000  F       0.00000000       0.00000000       0.00000000
Pd       7.31952546       9.81414579       7.35652565  T       0.00000000       0.00000000       0.00000000
Pd       1.84552105       7.99725790       1.50000000  F       0.00000000       0.00000000       0.00000000
Pd      11.68830001       9.22760527       1.50000000  F       0.00000000       0.00000000       0.00000000
Pd       0.60431863      11.70356305       5.37989931  F       0.00000000       0.00000000       0.00000000
Pd       8.61243158       6.15173685       3.44535000  F       0.00000000       0.00000000       0.00000000
Pd       6.75605293       5.55187564       5.37990856  F       0.00000000       0.00000000       0.00000000
Pd       8.53998750       6.14789669       7.40373622  T       0.00000000       0.00000000       0.00000000
Pd       7.99725790       1.84552105       1.50000000  F       0.00000000       0.00000000       0.00000000
Pd       9.84277895       2.46069474       3.44535000  F       0.00000000       0.00000000       0.00000000
Pd       8.00617313       1.83308050       5.40627808  F       0.00000000       0.00000000       0.00000000
Pd       9.81223522       2.48558489       7.51400831  T       0.00000000       0.00000000       0.00000000
Pd       9.22760527       4.30621579       1.50000000  F       0.00000000       0.00000000       0.00000000
Pd       4.92138948       4.92138948       3.44535000  F       0.00000000       0.00000000       0.00000000
Pd       9.22722207       4.29761474       5.41287912  F       0.00000000       0.00000000       0.00000000
Pd       4.91251984       4.97521437       7.40074232  T       0.00000000       0.00000000       0.00000000
Pd      10.45795264       6.76691053       1.50000000  F       0.00000000       0.00000000       0.00000000
Pd       0.00000000       7.38208422       3.44535000  F       0.00000000       0.00000000       0.00000000
Pd      10.43991375       6.78245558       5.40242713  F       0.00000000       0.00000000       0.00000000
Pd      12.27657581       7.46567877       7.44635195  T       0.00000000       0.00000000       0.00000000
Pd       4.92138948      11.07312632       3.44535000  F       0.00000000       0.00000000       0.00000000
Pd       1.23034737       9.84277895       3.44535000  F       0.00000000       0.00000000       0.00000000
Pd      11.67120661       9.23591801       5.37701028  F       0.00000000       0.00000000       0.00000000
Pd       1.17953506       9.81722517       7.34488744  T       0.00000000       0.00000000       0.00000000
Pd       0.61517368      11.68830001       1.50000000  F       0.00000000       0.00000000       0.00000000
Pd       2.46069474       0.00000000       3.44535000  F       0.00000000       0.00000000       0.00000000
Pd       2.39634273      -0.00095670       7.40879813  T       0.00000000       0.00000000       0.00000000
Pd       9.22719689      10.44932842       5.41286416  F       0.00000000       0.00000000       0.00000000
Pd       3.65695812       8.62796053       7.51475044  T       0.00000000       0.00000000       0.00000000
Pd       4.30621579       0.61517368       1.50000000  F       0.00000000       0.00000000       0.00000000
Pd      11.07312632       4.92138948       3.44535000  F       0.00000000       0.00000000       0.00000000
Pd       4.30621579       6.76691053       1.50000000  F       0.00000000       0.00000000       0.00000000
Pd       3.65443535       2.47882494       7.51186938  T       0.00000000       0.00000000       0.00000000
Pd       2.39089482       6.15318602       7.41138580  T       0.00000000       0.00000000       0.00000000
Pd       0.60433818       5.55187436       5.37993065  F       0.00000000       0.00000000       0.00000000
Pd       2.46069474       6.15173685       3.44535000  F       0.00000000       0.00000000       0.00000000
Pd       0.61517368       5.53656316       1.50000000  F       0.00000000       0.00000000       0.00000000
Pd       1.17145023       3.66134196       7.35353288  T       0.00000000       0.00000000       0.00000000
Pd      11.67123156       3.08419612       5.37703229  F       0.00000000       0.00000000       0.00000000
Pd       6.85727171       6.69567393       9.92813935  T       0.00000000       0.00000000       0.00000000
Pd       1.23034737       3.69104211       3.44535000  F       0.00000000       0.00000000       0.00000000
Pd      12.25401136       1.31759440       7.38822386  T       0.00000000       0.00000000       0.00000000
Pd      10.43990395       0.63072067       5.40242717  F       0.00000000       0.00000000       0.00000000
Pd       0.00000000       1.23034737       3.44535000  F       0.00000000       0.00000000       0.00000000
Pd       1.84552105       1.84552105       1.50000000  F       0.00000000       0.00000000       0.00000000
Pd      10.45795264       0.61517368       1.50000000  F       0.00000000       0.00000000       0.00000000
Pd      11.07160264      11.13045786       7.39480562  T       0.00000000       0.00000000       0.00000000
Pd       3.07550809      10.44932540       5.41290581  F       0.00000000       0.00000000       0.00000000
Pd       3.69104211       2.46069474       3.44535000  F       0.00000000       0.00000000       0.00000000
Pd       1.85442396       1.83305046       5.40626716  F       0.00000000       0.00000000       0.00000000
Pd      11.68830001       3.07586842       1.50000000  F       0.00000000       0.00000000       0.00000000
Pd       0.71308122       0.54600062       9.91537966  T       0.00000000       0.00000000       0.00000000
Pd       2.29623354       3.51751808       9.77359593  T       0.00000000       0.00000000       0.00000000
Pd       3.79919025       6.74263695       9.94358858  T       0.00000000       0.00000000       0.00000000
Pd       6.15173685       1.23034737       3.44535000  F       0.00000000       0.00000000       0.00000000
Pd       4.28818081       0.63072761       5.40241929  F       0.00000000       0.00000000       0.00000000
Pd       6.10143036       1.31335152       7.38009565  T       0.00000000       0.00000000       0.00000000
Pd       5.53656316       3.07586842       1.50000000  F       0.00000000       0.00000000       0.00000000
Pd       1.85444455       7.98478761       5.40627529  F       0.00000000       0.00000000       0.00000000
Pd       5.33723995       3.44149711       9.68958230  T       0.00000000       0.00000000       0.00000000
Pd       3.07586842      10.45795264       1.50000000  F       0.00000000       0.00000000       0.00000000
Pd       3.07586842       4.30621579       1.50000000  F       0.00000000       0.00000000       0.00000000
Pd       3.07547731       4.29761827       5.41291946  F       0.00000000       0.00000000       0.00000000
Pd      11.07039210       4.97212764       7.38711654  T       0.00000000       0.00000000       0.00000000
Pd      11.07312632      11.07312632       3.44535000  F       0.00000000       0.00000000       0.00000000
Pd       9.95967510       0.57449511       9.91500912  T       0.00000000       0.00000000       0.00000000
Pd       6.86610576       0.54794209       9.90628862  T       0.00000000       0.00000000       0.00000000
Pd       8.42842764       9.65367961       9.76859527  T       0.00000000       0.00000000       0.00000000
Pd       0.70655033       6.68296910       9.99841531  T       0.00000000       0.00000000       0.00000000
Pd       5.34642269       9.58127767       9.69580606  T       0.00000000       0.00000000       0.00000000
Pd      11.48416167       3.43982138       9.70844475  T       0.00000000       0.00000000       0.00000000
Pd       8.44569684       3.50533702       9.76784623  T       0.00000000       0.00000000       0.00000000
Pd       9.94324733       6.73043938       9.91908711  T       0.00000000       0.00000000       0.00000000
Pd       3.80539061       0.58447346       9.90597961  T       0.00000000       0.00000000       0.00000000
Pd       2.28566371       9.64987258       9.77474305  T       0.00000000       0.00000000       0.00000000
Pd       4.91542873      11.11769246       7.39346010  T       0.00000000       0.00000000       0.00000000
Pd      11.51601797       9.55719432       9.66435606  T       0.00000000       0.00000000       0.00000000
O        0.79939684       5.65142986      11.75681806  T       0.00000000       0.00000000       0.00000000
C        0.21747889       6.25666136      12.89344444  T       0.00000000       0.00000000       0.00000000
H        0.53201064       5.62417589      13.74917773  T       0.00000000       0.00000000       0.00000000
H        0.58071454       7.29184967      13.06503512  T       0.00000000       0.00000000       0.00000000
H       -0.89321200       6.27249646      12.85931939  T       0.00000000       0.00000000       0.00000000
