117
Lattice="12.303473692417112 0.0 0.0 0.0 12.303473692417114 0.0 0.0 0.0 29.165420746594243" Properties=species:S:1:pos:R:3:move_mask:L:1:momenta:R:3 adsorbate_info="_JSON {\"site\": {\"coordinates\": [12.092723591039261, 11.218330373431042, 9.582408965268124], \"connectivity\": 3, \"topology\": [3, 86, 111], \"n_vector\": [-0.0018041627846785953, -0.11693838135645084, 0.9931375332562855], \"h_vector\": [-0.011415076904135266, 0.9880484164191949, -0.15372059989082107], \"site_formula\": {\"O\": 1, \"Pd\": 2}}, \"smiles\": \"ClOC\", \"mdf\": 2.0058618563764394, \"adsorbate_formula\": \"CH3O\"}" mace_E=-585.4004586872064 converged=T n_steps=62 d_min=2.1229317150816898 site_type=unknown dE_rel_meV=0 original_idx=495 rank=1 E_MACE=-585.9015857568862 pbc="T T T"
O        8.43083566      11.57276424       9.35222949  T       0.00000000       0.00000000       0.00000000
O       11.46249293       5.36943790       9.38352633  T       0.00000000       0.00000000       0.00000000
O       11.49044090       1.63219669      10.59060400  T       0.00000000       0.00000000       0.00000000
O       11.44751607      11.53756330       9.34878765  T       0.00000000       0.00000000       0.00000000
O        8.40020053       7.80656079      10.55267405  T       0.00000000       0.00000000       0.00000000
O        5.30721537      11.52367677       9.37965458  T       0.00000000       0.00000000       0.00000000
O        5.34833699       7.78176354      10.60190416  T       0.00000000       0.00000000       0.00000000
O        8.41389002       5.42601758       9.35582512  T       0.00000000       0.00000000       0.00000000
O       11.48774444       7.77440791      10.57868072  T       0.00000000       0.00000000       0.00000000
O        2.27307012       5.43904654       9.35495054  T       0.00000000       0.00000000       0.00000000
O        2.28309850       1.68612059      10.53870885  T       0.00000000       0.00000000       0.00000000
O        2.28484450      11.59223386       9.32117962  T       0.00000000       0.00000000       0.00000000
O        5.29806984       5.38971508       9.39119292  T       0.00000000       0.00000000       0.00000000
O        5.35650983       1.62958551      10.56368885  T       0.00000000       0.00000000       0.00000000
O        2.23747294       7.82376824      10.55092742  T       0.00000000       0.00000000       0.00000000
O        8.39264324       1.65936080      10.53409128  T       0.00000000       0.00000000       0.00000000
Pd       5.53656316       9.22760527       1.50000000  F       0.00000000       0.00000000       0.00000000
Pd       6.10520790       7.46323761       7.39563508  T       0.00000000       0.00000000       0.00000000
Pd       4.28815433       6.78245218       5.40241719  F       0.00000000       0.00000000       0.00000000
Pd       6.15173685       7.38208422       3.44535000  F       0.00000000       0.00000000       0.00000000
Pd       7.31795135       3.64908414       7.34800499  T       0.00000000       0.00000000       0.00000000
Pd       5.51948843       3.08419342       5.37702261  F       0.00000000       0.00000000       0.00000000
Pd       6.76691053       5.53656316       1.50000000  F       0.00000000       0.00000000       0.00000000
Pd       7.38208422       9.84277895       3.44535000  F       0.00000000       0.00000000       0.00000000
Pd       7.99725790       7.99725790       1.50000000  F       0.00000000       0.00000000       0.00000000
Pd       5.51951598       9.23590192       5.37700272  F       0.00000000       0.00000000       0.00000000
Pd       8.00616182       7.98477587       5.40628129  F       0.00000000       0.00000000       0.00000000
Pd       6.76691053      11.68830001       1.50000000  F       0.00000000       0.00000000       0.00000000
Pd       8.61243158       0.00000000       3.44535000  F       0.00000000       0.00000000       0.00000000
Pd       6.75606179      11.70364973       5.37992114  F       0.00000000       0.00000000       0.00000000
Pd       8.54875271      -0.01380360       7.40625360  T       0.00000000       0.00000000       0.00000000
Pd       9.84277895       8.61243158       3.44535000  F       0.00000000       0.00000000       0.00000000
Pd       7.38208422       3.69104211       3.44535000  F       0.00000000       0.00000000       0.00000000
Pd       3.69104211       8.61243158       3.44535000  F       0.00000000       0.00000000       0.00000000
Pd       9.80534724       8.61454490       7.50348152  T       0.00000000       0.00000000       0.00000000
Pd       9.22760527      10.45795264       1.50000000  F       0.00000000       0.00000000       0.00000000
Pd       7.32356768       9.80725201       7.35222685  T       0.00000000       0.00000000       0.00000000
Pd       1.84552105       7.99725790       1.50000000  F       0.00000000       0.00000000       0.00000000
Pd      11.68830001       9.22760527       1.50000000  F       0.00000000       0.00000000       0.00000000
Pd       0.60431863      11.70356305       5.37989931  F       0.00000000       0.00000000       0.00000000
Pd       8.61243158       6.15173685       3.44535000  F       0.00000000       0.00000000       0.00000000
Pd       6.75605293       5.55187564       5.37990856  F       0.00000000       0.00000000       0.00000000
Pd       8.53943040       6.13775300       7.41007898  T       0.00000000       0.00000000       0.00000000
Pd       7.99725790       1.84552105       1.50000000  F       0.00000000       0.00000000       0.00000000
Pd       9.84277895       2.46069474       3.44535000  F       0.00000000       0.00000000       0.00000000
Pd       8.00617313       1.83308050       5.40627808  F       0.00000000       0.00000000       0.00000000
Pd       9.81275103       2.46545756       7.49759649  T       0.00000000       0.00000000       0.00000000
Pd       9.22760527       4.30621579       1.50000000  F       0.00000000       0.00000000       0.00000000
Pd       4.92138948       4.92138948       3.44535000  F       0.00000000       0.00000000       0.00000000
Pd       9.22722207       4.29761474       5.41287912  F       0.00000000       0.00000000       0.00000000
Pd       4.92466511       4.97472305       7.40176388  T       0.00000000       0.00000000       0.00000000
Pd      10.45795264       6.76691053       1.50000000  F       0.00000000       0.00000000       0.00000000
Pd       0.00000000       7.38208422       3.44535000  F       0.00000000       0.00000000       0.00000000
Pd      10.43991375       6.78245558       5.40242713  F       0.00000000       0.00000000       0.00000000
Pd      12.25263975       7.45748168       7.39287696  T       0.00000000       0.00000000       0.00000000
Pd       4.92138948      11.07312632       3.44535000  F       0.00000000       0.00000000       0.00000000
Pd       1.23034737       9.84277895       3.44535000  F       0.00000000       0.00000000       0.00000000
Pd      11.67120661       9.23591801       5.37701028  F       0.00000000       0.00000000       0.00000000
Pd       1.17349708       9.80356895       7.35054688  T       0.00000000       0.00000000       0.00000000
Pd       0.61517368      11.68830001       1.50000000  F       0.00000000       0.00000000       0.00000000
Pd       2.46069474       0.00000000       3.44535000  F       0.00000000       0.00000000       0.00000000
Pd       2.39433201      -0.00366867       7.40398974  T       0.00000000       0.00000000       0.00000000
Pd       9.22719689      10.44932842       5.41286416  F       0.00000000       0.00000000       0.00000000
Pd       3.65619852       8.61469821       7.51753796  T       0.00000000       0.00000000       0.00000000
Pd       4.30621579       0.61517368       1.50000000  F       0.00000000       0.00000000       0.00000000
Pd      11.07312632       4.92138948       3.44535000  F       0.00000000       0.00000000       0.00000000
Pd       4.30621579       6.76691053       1.50000000  F       0.00000000       0.00000000       0.00000000
Pd       3.66193131       2.47456498       7.49700030  T       0.00000000       0.00000000       0.00000000
Pd       2.39685677       6.14611142       7.41066977  T       0.00000000       0.00000000       0.00000000
Pd       0.60433818       5.55187436       5.37993065  F       0.00000000       0.00000000       0.00000000
Pd       2.46069474       6.15173685       3.44535000  F       0.00000000       0.00000000       0.00000000
Pd       0.61517368       5.53656316       1.50000000  F       0.00000000       0.00000000       0.00000000
Pd       1.17252679       3.66103584       7.33449800  T       0.00000000       0.00000000       0.00000000
Pd      11.67123156       3.08419612       5.37703229  F       0.00000000       0.00000000       0.00000000
Pd       6.86092827       6.64313209       9.92716869  T       0.00000000       0.00000000       0.00000000
Pd       1.23034737       3.69104211       3.44535000  F       0.00000000       0.00000000       0.00000000
Pd      12.27725123       1.30500539       7.46042133  T       0.00000000       0.00000000       0.00000000
Pd      10.43990395       0.63072067       5.40242717  F       0.00000000       0.00000000       0.00000000
Pd       0.00000000       1.23034737       3.44535000  F       0.00000000       0.00000000       0.00000000
Pd       1.84552105       1.84552105       1.50000000  F       0.00000000       0.00000000       0.00000000
Pd      10.45795264       0.61517368       1.50000000  F       0.00000000       0.00000000       0.00000000
Pd      11.07479433      11.11141662       7.38260555  T       0.00000000       0.00000000       0.00000000
Pd       3.07550809      10.44932540       5.41290581  F       0.00000000       0.00000000       0.00000000
Pd       3.69104211       2.46069474       3.44535000  F       0.00000000       0.00000000       0.00000000
Pd       1.85442396       1.83305046       5.40626716  F       0.00000000       0.00000000       0.00000000
Pd      11.68830001       3.07586842       1.50000000  F       0.00000000       0.00000000       0.00000000
Pd       0.72171020       0.47005024       9.98989822  T       0.00000000       0.00000000       0.00000000
Pd       2.29289513       3.45405988       9.74655944  T       0.00000000       0.00000000       0.00000000
Pd       3.79996052       6.68549432       9.93178485  T       0.00000000       0.00000000       0.00000000
Pd       6.15173685       1.23034737       3.44535000  F       0.00000000       0.00000000       0.00000000
Pd       4.28818081       0.63072761       5.40241929  F       0.00000000       0.00000000       0.00000000
Pd       6.10128352       1.29915757       7.39082797  T       0.00000000       0.00000000       0.00000000
Pd       5.53656316       3.07586842       1.50000000  F       0.00000000       0.00000000       0.00000000
Pd       1.85444455       7.98478761       5.40627529  F       0.00000000       0.00000000       0.00000000
Pd       5.34777471       3.36991051       9.67750421  T       0.00000000       0.00000000       0.00000000
Pd       3.07586842      10.45795264       1.50000000  F       0.00000000       0.00000000       0.00000000
Pd       3.07586842       4.30621579       1.50000000  F       0.00000000       0.00000000       0.00000000
Pd       3.07547731       4.29761827       5.41291946  F       0.00000000       0.00000000       0.00000000
Pd      11.06858924       4.96830469       7.39850886  T       0.00000000       0.00000000       0.00000000
Pd      11.07312632      11.07312632       3.44535000  F       0.00000000       0.00000000       0.00000000
Pd       9.95342494       0.52397722       9.90939261  T       0.00000000       0.00000000       0.00000000
Pd       6.86702337       0.48095002       9.91499497  T       0.00000000       0.00000000       0.00000000
Pd       8.44711952       9.59391637       9.76880296  T       0.00000000       0.00000000       0.00000000
Pd       0.70882873       6.64760005       9.91734959  T       0.00000000       0.00000000       0.00000000
Pd       5.34728046       9.51596826       9.70421230  T       0.00000000       0.00000000       0.00000000
Pd      11.52730627       3.33927676       9.65794640  T       0.00000000       0.00000000       0.00000000
Pd       8.42370572       3.44646840       9.75727839  T       0.00000000       0.00000000       0.00000000
Pd       9.95199869       6.66337823       9.92141498  T       0.00000000       0.00000000       0.00000000
Pd       3.81184417       0.52161880       9.91520274  T       0.00000000       0.00000000       0.00000000
Pd       2.28718510       9.61409997       9.77120494  T       0.00000000       0.00000000       0.00000000
Pd       4.91863207      11.10794994       7.39825697  T       0.00000000       0.00000000       0.00000000
Pd      11.47802380       9.51746480       9.68126199  T       0.00000000       0.00000000       0.00000000
O       13.26129390      11.82413346      11.80184847  T       0.00000000       0.00000000       0.00000000
C       12.13261691      11.28825621      12.42982354  T       0.00000000       0.00000000       0.00000000
H       12.48787485      10.88732674      13.40262503  T       0.00000000       0.00000000       0.00000000
H       11.32684692      12.03024588      12.62059962  T       0.00000000       0.00000000       0.00000000
H       11.67533101      10.42528072      11.86398606  T       0.00000000       0.00000000       0.00000000
