117
Lattice="12.303473692417112 0.0 0.0 0.0 12.303473692417114 0.0 0.0 0.0 29.165420746594243" Properties=species:S:1:pos:R:3:move_mask:L:1:momenta:R:3 adsorbate_info="_JSON {\"site\": {\"coordinates\": [8.527286640720781, 4.36960541257109, 9.493825682633805], \"connectivity\": 2, \"topology\": [7, 106], \"n_vector\": [-0.0010216759344544024, 0.013732594267647962, 0.9999051815212106], \"h_vector\": [0.003086615744562507, -0.9796204439695138, 0.20083390789460423], \"site_formula\": {\"O\": 1, \"Pd\": 1}}, \"smiles\": \"ClOC\", \"mdf\": 1.7225098197859199, \"adsorbate_formula\": \"CH3O\"}" mace_E=-585.5229554739929 converged=T n_steps=44 d_min=2.112427396047361 site_type=unknown dE_rel_meV=0 original_idx=338 rank=8 E_MACE=-585.8918749944606 pbc="T T T"
O        8.48292712      11.59290514       9.32897761  T       0.00000000       0.00000000       0.00000000
O       11.51689032       5.39743040       9.37934154  T       0.00000000       0.00000000       0.00000000
O       11.56082475       1.64077620      10.56993244  T       0.00000000       0.00000000       0.00000000
O       11.52196925      11.55381463       9.36224694  T       0.00000000       0.00000000       0.00000000
O        8.45918105       7.84641716      10.51349005  T       0.00000000       0.00000000       0.00000000
O        5.35251275      11.55501420       9.36213850  T       0.00000000       0.00000000       0.00000000
O        5.40551124       7.80955881      10.56537418  T       0.00000000       0.00000000       0.00000000
O        8.48234629       5.45309677       9.35899647  T       0.00000000       0.00000000       0.00000000
O       11.57205376       7.80763384      10.55915761  T       0.00000000       0.00000000       0.00000000
O        2.33642478       5.44450344       9.35387396  T       0.00000000       0.00000000       0.00000000
O        2.30029947       1.68305621      10.54407189  T       0.00000000       0.00000000       0.00000000
O        2.33198318      11.60370102       9.34600088  T       0.00000000       0.00000000       0.00000000
O        5.36294634       5.39967749       9.38264214  T       0.00000000       0.00000000       0.00000000
O        5.41107148       1.64039580      10.56778839  T       0.00000000       0.00000000       0.00000000
O        2.30385416       7.83688552      10.52384762  T       0.00000000       0.00000000       0.00000000
O        8.45240904       1.62055032      10.54515127  T       0.00000000       0.00000000       0.00000000
Pd       5.53656316       9.22760527       1.50000000  F       0.00000000       0.00000000       0.00000000
Pd       6.11733371       7.45414064       7.38472462  T       0.00000000       0.00000000       0.00000000
Pd       4.28815433       6.78245218       5.40241719  F       0.00000000       0.00000000       0.00000000
Pd       6.15173685       7.38208422       3.44535000  F       0.00000000       0.00000000       0.00000000
Pd       7.35622035       3.64717114       7.40190410  T       0.00000000       0.00000000       0.00000000
Pd       5.51948843       3.08419342       5.37702261  F       0.00000000       0.00000000       0.00000000
Pd       6.76691053       5.53656316       1.50000000  F       0.00000000       0.00000000       0.00000000
Pd       7.38208422       9.84277895       3.44535000  F       0.00000000       0.00000000       0.00000000
Pd       7.99725790       7.99725790       1.50000000  F       0.00000000       0.00000000       0.00000000
Pd       5.51951598       9.23590192       5.37700272  F       0.00000000       0.00000000       0.00000000
Pd       8.00616182       7.98477587       5.40628129  F       0.00000000       0.00000000       0.00000000
Pd       6.76691053      11.68830001       1.50000000  F       0.00000000       0.00000000       0.00000000
Pd       8.61243158       0.00000000       3.44535000  F       0.00000000       0.00000000       0.00000000
Pd       6.75606179      11.70364973       5.37992114  F       0.00000000       0.00000000       0.00000000
Pd       8.56167043      -0.00280617       7.39196573  T       0.00000000       0.00000000       0.00000000
Pd       9.84277895       8.61243158       3.44535000  F       0.00000000       0.00000000       0.00000000
Pd       7.38208422       3.69104211       3.44535000  F       0.00000000       0.00000000       0.00000000
Pd       3.69104211       8.61243158       3.44535000  F       0.00000000       0.00000000       0.00000000
Pd       9.82189511       8.61106090       7.49535706  T       0.00000000       0.00000000       0.00000000
Pd       9.22760527      10.45795264       1.50000000  F       0.00000000       0.00000000       0.00000000
Pd       7.32952662       9.80489683       7.34513859  T       0.00000000       0.00000000       0.00000000
Pd       1.84552105       7.99725790       1.50000000  F       0.00000000       0.00000000       0.00000000
Pd      11.68830001       9.22760527       1.50000000  F       0.00000000       0.00000000       0.00000000
Pd       0.60431863      11.70356305       5.37989931  F       0.00000000       0.00000000       0.00000000
Pd       8.61243158       6.15173685       3.44535000  F       0.00000000       0.00000000       0.00000000
Pd       6.75605293       5.55187564       5.37990856  F       0.00000000       0.00000000       0.00000000
Pd       8.56234019       6.12510791       7.40424078  T       0.00000000       0.00000000       0.00000000
Pd       7.99725790       1.84552105       1.50000000  F       0.00000000       0.00000000       0.00000000
Pd       9.84277895       2.46069474       3.44535000  F       0.00000000       0.00000000       0.00000000
Pd       8.00617313       1.83308050       5.40627808  F       0.00000000       0.00000000       0.00000000
Pd       9.80843356       2.48404964       7.53258422  T       0.00000000       0.00000000       0.00000000
Pd       9.22760527       4.30621579       1.50000000  F       0.00000000       0.00000000       0.00000000
Pd       4.92138948       4.92138948       3.44535000  F       0.00000000       0.00000000       0.00000000
Pd       9.22722207       4.29761474       5.41287912  F       0.00000000       0.00000000       0.00000000
Pd       4.94663870       4.95996265       7.40037560  T       0.00000000       0.00000000       0.00000000
Pd      10.45795264       6.76691053       1.50000000  F       0.00000000       0.00000000       0.00000000
Pd       0.00000000       7.38208422       3.44535000  F       0.00000000       0.00000000       0.00000000
Pd      10.43991375       6.78245558       5.40242713  F       0.00000000       0.00000000       0.00000000
Pd      12.27184226       7.46061098       7.38767799  T       0.00000000       0.00000000       0.00000000
Pd       4.92138948      11.07312632       3.44535000  F       0.00000000       0.00000000       0.00000000
Pd       1.23034737       9.84277895       3.44535000  F       0.00000000       0.00000000       0.00000000
Pd      11.67120661       9.23591801       5.37701028  F       0.00000000       0.00000000       0.00000000
Pd       1.18639510       9.81131390       7.34849452  T       0.00000000       0.00000000       0.00000000
Pd       0.61517368      11.68830001       1.50000000  F       0.00000000       0.00000000       0.00000000
Pd       2.46069474       0.00000000       3.44535000  F       0.00000000       0.00000000       0.00000000
Pd       2.40698523       0.00240990       7.40013794  T       0.00000000       0.00000000       0.00000000
Pd       9.22719689      10.44932842       5.41286416  F       0.00000000       0.00000000       0.00000000
Pd       3.67020752       8.61357551       7.49852184  T       0.00000000       0.00000000       0.00000000
Pd       4.30621579       0.61517368       1.50000000  F       0.00000000       0.00000000       0.00000000
Pd      11.07312632       4.92138948       3.44535000  F       0.00000000       0.00000000       0.00000000
Pd       4.30621579       6.76691053       1.50000000  F       0.00000000       0.00000000       0.00000000
Pd       3.67857700       2.47725967       7.50906970  T       0.00000000       0.00000000       0.00000000
Pd       2.41177519       6.13085776       7.40192810  T       0.00000000       0.00000000       0.00000000
Pd       0.60433818       5.55187436       5.37993065  F       0.00000000       0.00000000       0.00000000
Pd       2.46069474       6.15173685       3.44535000  F       0.00000000       0.00000000       0.00000000
Pd       0.61517368       5.53656316       1.50000000  F       0.00000000       0.00000000       0.00000000
Pd       1.18335614       3.64656855       7.35759492  T       0.00000000       0.00000000       0.00000000
Pd      11.67123156       3.08419612       5.37703229  F       0.00000000       0.00000000       0.00000000
Pd       6.91994838       6.66819728       9.90991688  T       0.00000000       0.00000000       0.00000000
Pd       1.23034737       3.69104211       3.44535000  F       0.00000000       0.00000000       0.00000000
Pd      12.25121818       1.30985537       7.38739817  T       0.00000000       0.00000000       0.00000000
Pd      10.43990395       0.63072067       5.40242717  F       0.00000000       0.00000000       0.00000000
Pd       0.00000000       1.23034737       3.44535000  F       0.00000000       0.00000000       0.00000000
Pd       1.84552105       1.84552105       1.50000000  F       0.00000000       0.00000000       0.00000000
Pd      10.45795264       0.61517368       1.50000000  F       0.00000000       0.00000000       0.00000000
Pd      11.08387863      11.11077079       7.39022748  T       0.00000000       0.00000000       0.00000000
Pd       3.07550809      10.44932540       5.41290581  F       0.00000000       0.00000000       0.00000000
Pd       3.69104211       2.46069474       3.44535000  F       0.00000000       0.00000000       0.00000000
Pd       1.85442396       1.83305046       5.40626716  F       0.00000000       0.00000000       0.00000000
Pd      11.68830001       3.07586842       1.50000000  F       0.00000000       0.00000000       0.00000000
Pd       0.77255309       0.51146356       9.90621926  T       0.00000000       0.00000000       0.00000000
Pd       2.34287020       3.46787988       9.76244311  T       0.00000000       0.00000000       0.00000000
Pd       3.86308226       6.69601633       9.91075118  T       0.00000000       0.00000000       0.00000000
Pd       6.15173685       1.23034737       3.44535000  F       0.00000000       0.00000000       0.00000000
Pd       4.28818081       0.63072761       5.40241929  F       0.00000000       0.00000000       0.00000000
Pd       6.11339181       1.30828750       7.37660086  T       0.00000000       0.00000000       0.00000000
Pd       5.53656316       3.07586842       1.50000000  F       0.00000000       0.00000000       0.00000000
Pd       1.85444455       7.98478761       5.40627529  F       0.00000000       0.00000000       0.00000000
Pd       5.40783845       3.38693291       9.69944464  T       0.00000000       0.00000000       0.00000000
Pd       3.07586842      10.45795264       1.50000000  F       0.00000000       0.00000000       0.00000000
Pd       3.07586842       4.30621579       1.50000000  F       0.00000000       0.00000000       0.00000000
Pd       3.07547731       4.29761827       5.41291946  F       0.00000000       0.00000000       0.00000000
Pd      11.09211220       4.96381198       7.40154903  T       0.00000000       0.00000000       0.00000000
Pd      11.07312632      11.07312632       3.44535000  F       0.00000000       0.00000000       0.00000000
Pd      10.01473366       0.53960983       9.89787594  T       0.00000000       0.00000000       0.00000000
Pd       6.92049730       0.50298057       9.88975955  T       0.00000000       0.00000000       0.00000000
Pd       8.49646030       9.62338787       9.73769898  T       0.00000000       0.00000000       0.00000000
Pd       0.77669995       6.65782324       9.90512289  T       0.00000000       0.00000000       0.00000000
Pd       5.39858464       9.54138474       9.67078515  T       0.00000000       0.00000000       0.00000000
Pd      11.55629027       3.38476557       9.69651085  T       0.00000000       0.00000000       0.00000000
Pd       8.48985644       3.48444859       9.90118299  T       0.00000000       0.00000000       0.00000000
Pd      10.02384195       6.70758440       9.89503876  T       0.00000000       0.00000000       0.00000000
Pd       3.85978171       0.54810884       9.91041084  T       0.00000000       0.00000000       0.00000000
Pd       2.34336213       9.62568646       9.74969280  T       0.00000000       0.00000000       0.00000000
Pd       4.92452045      11.11123483       7.39063784  T       0.00000000       0.00000000       0.00000000
Pd      11.56961452       9.54064015       9.66767620  T       0.00000000       0.00000000       0.00000000
O        8.52479529       3.86974117      11.89672578  T       0.00000000       0.00000000       0.00000000
C        8.49041328       5.15217661      12.43752703  T       0.00000000       0.00000000       0.00000000
H        8.45278981       5.02212408      13.53787652  T       0.00000000       0.00000000       0.00000000
H        9.38955969       5.77231159      12.18933338  T       0.00000000       0.00000000       0.00000000
H        7.59243135       5.75285058      12.13243754  T       0.00000000       0.00000000       0.00000000
