117
Lattice="12.303473692417112 0.0 0.0 0.0 12.303473692417114 0.0 0.0 0.0 29.165420746594243" Properties=species:S:1:pos:R:3:move_mask:L:1:momenta:R:3 adsorbate_info="_JSON {\"site\": {\"coordinates\": [6.970918907896309, 6.549252339842636, 9.83360388011706], \"connectivity\": 1, \"topology\": [74], \"n_vector\": [-0.0015259142265451955, -0.30045282760789593, 0.9537954549945147], \"h_vector\": [1.0, 0.0, 0.0], \"site_formula\": {\"Pd\": 1}}, \"smiles\": \"ClOC\", \"mdf\": 1.7097869690905103, \"adsorbate_formula\": \"CH3O\"}" mace_E=-585.4037840550411 converged=T n_steps=58 d_min=2.0452123604323162 site_type=unknown dE_rel_meV=0 original_idx=281 rank=249 E_MACE=-585.4179623504556 pbc="T T T"
O        8.46878970      11.61555094       9.35039196  T       0.00000000       0.00000000       0.00000000
O       11.46585406       5.41191057       9.38209560  T       0.00000000       0.00000000       0.00000000
O       11.55719992       1.66156161      10.55558491  T       0.00000000       0.00000000       0.00000000
O       11.49821857      11.55854100       9.37430332  T       0.00000000       0.00000000       0.00000000
O        8.43816652       7.87123550      10.55412048  T       0.00000000       0.00000000       0.00000000
O        5.35950768      11.55079359       9.37192452  T       0.00000000       0.00000000       0.00000000
O        5.34798153       7.81766771      10.59112560  T       0.00000000       0.00000000       0.00000000
O        8.44467293       5.47825530       9.32594949  T       0.00000000       0.00000000       0.00000000
O       11.51411208       7.81186607      10.58398118  T       0.00000000       0.00000000       0.00000000
O        2.28584233       5.45308072       9.36549132  T       0.00000000       0.00000000       0.00000000
O        2.29313531       1.67840344      10.53136515  T       0.00000000       0.00000000       0.00000000
O        2.32196179      11.59421642       9.34880195  T       0.00000000       0.00000000       0.00000000
O        5.29554412       5.41529162       9.36187140  T       0.00000000       0.00000000       0.00000000
O        5.38767950       1.65976523      10.56367351  T       0.00000000       0.00000000       0.00000000
O        2.24599689       7.83867943      10.55593295  T       0.00000000       0.00000000       0.00000000
O        8.44084362       1.70417210      10.51918400  T       0.00000000       0.00000000       0.00000000
Pd       5.53656316       9.22760527       1.50000000  F       0.00000000       0.00000000       0.00000000
Pd       6.12732922       7.46328417       7.45568875  T       0.00000000       0.00000000       0.00000000
Pd       4.28815433       6.78245218       5.40241719  F       0.00000000       0.00000000       0.00000000
Pd       6.15173685       7.38208422       3.44535000  F       0.00000000       0.00000000       0.00000000
Pd       7.32172516       3.65827256       7.35289067  T       0.00000000       0.00000000       0.00000000
Pd       5.51948843       3.08419342       5.37702261  F       0.00000000       0.00000000       0.00000000
Pd       6.76691053       5.53656316       1.50000000  F       0.00000000       0.00000000       0.00000000
Pd       7.38208422       9.84277895       3.44535000  F       0.00000000       0.00000000       0.00000000
Pd       7.99725790       7.99725790       1.50000000  F       0.00000000       0.00000000       0.00000000
Pd       5.51951598       9.23590192       5.37700272  F       0.00000000       0.00000000       0.00000000
Pd       8.00616182       7.98477587       5.40628129  F       0.00000000       0.00000000       0.00000000
Pd       6.76691053      11.68830001       1.50000000  F       0.00000000       0.00000000       0.00000000
Pd       8.61243158       0.00000000       3.44535000  F       0.00000000       0.00000000       0.00000000
Pd       6.75606179      11.70364973       5.37992114  F       0.00000000       0.00000000       0.00000000
Pd       8.55975460       0.00517037       7.40145895  T       0.00000000       0.00000000       0.00000000
Pd       9.84277895       8.61243158       3.44535000  F       0.00000000       0.00000000       0.00000000
Pd       7.38208422       3.69104211       3.44535000  F       0.00000000       0.00000000       0.00000000
Pd       3.69104211       8.61243158       3.44535000  F       0.00000000       0.00000000       0.00000000
Pd       9.82142741       8.62283145       7.49587678  T       0.00000000       0.00000000       0.00000000
Pd       9.22760527      10.45795264       1.50000000  F       0.00000000       0.00000000       0.00000000
Pd       7.33568335       9.81676240       7.33672358  T       0.00000000       0.00000000       0.00000000
Pd       1.84552105       7.99725790       1.50000000  F       0.00000000       0.00000000       0.00000000
Pd      11.68830001       9.22760527       1.50000000  F       0.00000000       0.00000000       0.00000000
Pd       0.60431863      11.70356305       5.37989931  F       0.00000000       0.00000000       0.00000000
Pd       8.61243158       6.15173685       3.44535000  F       0.00000000       0.00000000       0.00000000
Pd       6.75605293       5.55187564       5.37990856  F       0.00000000       0.00000000       0.00000000
Pd       8.54264426       6.15178238       7.39824941  T       0.00000000       0.00000000       0.00000000
Pd       7.99725790       1.84552105       1.50000000  F       0.00000000       0.00000000       0.00000000
Pd       9.84277895       2.46069474       3.44535000  F       0.00000000       0.00000000       0.00000000
Pd       8.00617313       1.83308050       5.40627808  F       0.00000000       0.00000000       0.00000000
Pd       9.81572778       2.48433779       7.50741811  T       0.00000000       0.00000000       0.00000000
Pd       9.22760527       4.30621579       1.50000000  F       0.00000000       0.00000000       0.00000000
Pd       4.92138948       4.92138948       3.44535000  F       0.00000000       0.00000000       0.00000000
Pd       9.22722207       4.29761474       5.41287912  F       0.00000000       0.00000000       0.00000000
Pd       4.92230720       4.97489521       7.39216948  T       0.00000000       0.00000000       0.00000000
Pd      10.45795264       6.76691053       1.50000000  F       0.00000000       0.00000000       0.00000000
Pd       0.00000000       7.38208422       3.44535000  F       0.00000000       0.00000000       0.00000000
Pd      10.43991375       6.78245558       5.40242713  F       0.00000000       0.00000000       0.00000000
Pd      12.26461393       7.45949684       7.39688597  T       0.00000000       0.00000000       0.00000000
Pd       4.92138948      11.07312632       3.44535000  F       0.00000000       0.00000000       0.00000000
Pd       1.23034737       9.84277895       3.44535000  F       0.00000000       0.00000000       0.00000000
Pd      11.67120661       9.23591801       5.37701028  F       0.00000000       0.00000000       0.00000000
Pd       1.17427499       9.80778091       7.35261077  T       0.00000000       0.00000000       0.00000000
Pd       0.61517368      11.68830001       1.50000000  F       0.00000000       0.00000000       0.00000000
Pd       2.46069474       0.00000000       3.44535000  F       0.00000000       0.00000000       0.00000000
Pd       2.40066847      -0.00558119       7.40289936  T       0.00000000       0.00000000       0.00000000
Pd       9.22719689      10.44932842       5.41286416  F       0.00000000       0.00000000       0.00000000
Pd       3.66216474       8.61983854       7.49456625  T       0.00000000       0.00000000       0.00000000
Pd       4.30621579       0.61517368       1.50000000  F       0.00000000       0.00000000       0.00000000
Pd      11.07312632       4.92138948       3.44535000  F       0.00000000       0.00000000       0.00000000
Pd       4.30621579       6.76691053       1.50000000  F       0.00000000       0.00000000       0.00000000
Pd       3.66654548       2.47886551       7.50294102  T       0.00000000       0.00000000       0.00000000
Pd       2.39736658       6.13943405       7.41028110  T       0.00000000       0.00000000       0.00000000
Pd       0.60433818       5.55187436       5.37993065  F       0.00000000       0.00000000       0.00000000
Pd       2.46069474       6.15173685       3.44535000  F       0.00000000       0.00000000       0.00000000
Pd       0.61517368       5.53656316       1.50000000  F       0.00000000       0.00000000       0.00000000
Pd       1.17517441       3.65677198       7.35538665  T       0.00000000       0.00000000       0.00000000
Pd      11.67123156       3.08419612       5.37703229  F       0.00000000       0.00000000       0.00000000
Pd       6.87697958       6.65530422       9.99188673  T       0.00000000       0.00000000       0.00000000
Pd       1.23034737       3.69104211       3.44535000  F       0.00000000       0.00000000       0.00000000
Pd      12.25642705       1.31165618       7.38961100  T       0.00000000       0.00000000       0.00000000
Pd      10.43990395       0.63072067       5.40242717  F       0.00000000       0.00000000       0.00000000
Pd       0.00000000       1.23034737       3.44535000  F       0.00000000       0.00000000       0.00000000
Pd       1.84552105       1.84552105       1.50000000  F       0.00000000       0.00000000       0.00000000
Pd      10.45795264       0.61517368       1.50000000  F       0.00000000       0.00000000       0.00000000
Pd      11.07928495      11.11773484       7.39687336  T       0.00000000       0.00000000       0.00000000
Pd       3.07550809      10.44932540       5.41290581  F       0.00000000       0.00000000       0.00000000
Pd       3.69104211       2.46069474       3.44535000  F       0.00000000       0.00000000       0.00000000
Pd       1.85442396       1.83305046       5.40626716  F       0.00000000       0.00000000       0.00000000
Pd      11.68830001       3.07586842       1.50000000  F       0.00000000       0.00000000       0.00000000
Pd       0.76254543       0.51028671       9.90246827  T       0.00000000       0.00000000       0.00000000
Pd       2.32175315       3.47206054       9.76862543  T       0.00000000       0.00000000       0.00000000
Pd       3.80607703       6.70293241       9.93043229  T       0.00000000       0.00000000       0.00000000
Pd       6.15173685       1.23034737       3.44535000  F       0.00000000       0.00000000       0.00000000
Pd       4.28818081       0.63072761       5.40241929  F       0.00000000       0.00000000       0.00000000
Pd       6.10527674       1.31338485       7.38708973  T       0.00000000       0.00000000       0.00000000
Pd       5.53656316       3.07586842       1.50000000  F       0.00000000       0.00000000       0.00000000
Pd       1.85444455       7.98478761       5.40627529  F       0.00000000       0.00000000       0.00000000
Pd       5.35178483       3.40619621       9.69409362  T       0.00000000       0.00000000       0.00000000
Pd       3.07586842      10.45795264       1.50000000  F       0.00000000       0.00000000       0.00000000
Pd       3.07586842       4.30621579       1.50000000  F       0.00000000       0.00000000       0.00000000
Pd       3.07547731       4.29761827       5.41291946  F       0.00000000       0.00000000       0.00000000
Pd      11.07273895       4.97568896       7.39861522  T       0.00000000       0.00000000       0.00000000
Pd      11.07312632      11.07312632       3.44535000  F       0.00000000       0.00000000       0.00000000
Pd      10.00274945       0.56383032       9.90138304  T       0.00000000       0.00000000       0.00000000
Pd       6.91002562       0.52756026       9.90290779  T       0.00000000       0.00000000       0.00000000
Pd       8.46939628       9.63559498       9.74711331  T       0.00000000       0.00000000       0.00000000
Pd       0.72178272       6.66372858       9.92997254  T       0.00000000       0.00000000       0.00000000
Pd       5.39565586       9.52378871       9.64898973  T       0.00000000       0.00000000       0.00000000
Pd      11.53972441       3.40103397       9.67809817  T       0.00000000       0.00000000       0.00000000
Pd       8.47059348       3.49819163       9.75973770  T       0.00000000       0.00000000       0.00000000
Pd       9.96886752       6.70938033       9.92642377  T       0.00000000       0.00000000       0.00000000
Pd       3.85273854       0.54257719       9.90487509  T       0.00000000       0.00000000       0.00000000
Pd       2.30905118       9.61684695       9.76135997  T       0.00000000       0.00000000       0.00000000
Pd       4.92556955      11.12448457       7.39423770  T       0.00000000       0.00000000       0.00000000
Pd      11.52507641       9.54253789       9.68620770  T       0.00000000       0.00000000       0.00000000
O        7.11396355       5.64723398      11.75636256  T       0.00000000       0.00000000       0.00000000
C        6.25970669       5.94815857      12.83925352  T       0.00000000       0.00000000       0.00000000
H        6.75324762       5.50806487      13.73176800  T       0.00000000       0.00000000       0.00000000
H        6.13104828       7.03560167      13.01768388  T       0.00000000       0.00000000       0.00000000
H        5.25390061       5.48300853      12.74222516  T       0.00000000       0.00000000       0.00000000
