117
Lattice="12.303473692417112 0.0 0.0 0.0 12.303473692417114 0.0 0.0 0.0 29.165420746594243" Properties=species:S:1:pos:R:3:move_mask:L:1:momenta:R:3 adsorbate_info="_JSON {\"site\": {\"coordinates\": [10.056869954213791, 4.4339819203541, 9.710706060649956], \"connectivity\": 3, \"topology\": [105, 106, 107], \"n_vector\": [0.033342925147616685, -0.002860489965598719, 0.9994398766007674], \"h_vector\": [-0.9994691251886882, 0.017580084172094352, 0.027430064437772187], \"site_formula\": {\"Pd\": 3}}, \"smiles\": \"ClOC\", \"mdf\": 2.310448395681587, \"adsorbate_formula\": \"CH3O\"}" mace_E=-585.6515691674524 converged=T n_steps=112 d_min=1.5378182798853897 site_type=unknown dE_rel_meV=0 original_idx=410 rank=497 E_MACE=-584.2482630759328 pbc="T T T"
O        8.48416860      11.57871608       9.34723101  T       0.00000000       0.00000000       0.00000000
O       11.47541924       5.39893167       9.37860997  T       0.00000000       0.00000000       0.00000000
O       11.56920556       1.64056939      10.56255630  T       0.00000000       0.00000000       0.00000000
O       11.50658249      11.54512073       9.36778482  T       0.00000000       0.00000000       0.00000000
O        8.40839875       7.82392375      10.53735084  T       0.00000000       0.00000000       0.00000000
O        5.34582255      11.52459255       9.36708048  T       0.00000000       0.00000000       0.00000000
O        5.36177405       7.78326607      10.58936857  T       0.00000000       0.00000000       0.00000000
O        8.43368564       5.45289587       9.31320981  T       0.00000000       0.00000000       0.00000000
O       11.51218081       7.79642354      10.57697189  T       0.00000000       0.00000000       0.00000000
O        2.28487507       5.44422232       9.35827237  T       0.00000000       0.00000000       0.00000000
O        2.29935471       1.66950752      10.52728682  T       0.00000000       0.00000000       0.00000000
O        2.32000136      11.58241425       9.34458657  T       0.00000000       0.00000000       0.00000000
O        5.32085668       5.38448610       9.38886708  T       0.00000000       0.00000000       0.00000000
O        5.40055393       1.62293754      10.56049860  T       0.00000000       0.00000000       0.00000000
O        2.26047281       7.82188959      10.55004206  T       0.00000000       0.00000000       0.00000000
O        8.42722440       1.63333413      10.54193453  T       0.00000000       0.00000000       0.00000000
Pd       5.53656316       9.22760527       1.50000000  F       0.00000000       0.00000000       0.00000000
Pd       6.10705521       7.45462395       7.39437155  T       0.00000000       0.00000000       0.00000000
Pd       4.28815433       6.78245218       5.40241719  F       0.00000000       0.00000000       0.00000000
Pd       6.15173685       7.38208422       3.44535000  F       0.00000000       0.00000000       0.00000000
Pd       7.34347667       3.64971205       7.39059906  T       0.00000000       0.00000000       0.00000000
Pd       5.51948843       3.08419342       5.37702261  F       0.00000000       0.00000000       0.00000000
Pd       6.76691053       5.53656316       1.50000000  F       0.00000000       0.00000000       0.00000000
Pd       7.38208422       9.84277895       3.44535000  F       0.00000000       0.00000000       0.00000000
Pd       7.99725790       7.99725790       1.50000000  F       0.00000000       0.00000000       0.00000000
Pd       5.51951598       9.23590192       5.37700272  F       0.00000000       0.00000000       0.00000000
Pd       8.00616182       7.98477587       5.40628129  F       0.00000000       0.00000000       0.00000000
Pd       6.76691053      11.68830001       1.50000000  F       0.00000000       0.00000000       0.00000000
Pd       8.61243158       0.00000000       3.44535000  F       0.00000000       0.00000000       0.00000000
Pd       6.75606179      11.70364973       5.37992114  F       0.00000000       0.00000000       0.00000000
Pd       8.56022306      -0.01362505       7.40315599  T       0.00000000       0.00000000       0.00000000
Pd       9.84277895       8.61243158       3.44535000  F       0.00000000       0.00000000       0.00000000
Pd       7.38208422       3.69104211       3.44535000  F       0.00000000       0.00000000       0.00000000
Pd       3.69104211       8.61243158       3.44535000  F       0.00000000       0.00000000       0.00000000
Pd       9.81985418       8.61375213       7.50246957  T       0.00000000       0.00000000       0.00000000
Pd       9.22760527      10.45795264       1.50000000  F       0.00000000       0.00000000       0.00000000
Pd       7.33063505       9.79857169       7.34994069  T       0.00000000       0.00000000       0.00000000
Pd       1.84552105       7.99725790       1.50000000  F       0.00000000       0.00000000       0.00000000
Pd      11.68830001       9.22760527       1.50000000  F       0.00000000       0.00000000       0.00000000
Pd       0.60431863      11.70356305       5.37989931  F       0.00000000       0.00000000       0.00000000
Pd       8.61243158       6.15173685       3.44535000  F       0.00000000       0.00000000       0.00000000
Pd       6.75605293       5.55187564       5.37990856  F       0.00000000       0.00000000       0.00000000
Pd       8.55614824       6.14233117       7.38653772  T       0.00000000       0.00000000       0.00000000
Pd       7.99725790       1.84552105       1.50000000  F       0.00000000       0.00000000       0.00000000
Pd       9.84277895       2.46069474       3.44535000  F       0.00000000       0.00000000       0.00000000
Pd       8.00617313       1.83308050       5.40627808  F       0.00000000       0.00000000       0.00000000
Pd       9.80510702       2.47308013       7.51454896  T       0.00000000       0.00000000       0.00000000
Pd       9.22760527       4.30621579       1.50000000  F       0.00000000       0.00000000       0.00000000
Pd       4.92138948       4.92138948       3.44535000  F       0.00000000       0.00000000       0.00000000
Pd       9.22722207       4.29761474       5.41287912  F       0.00000000       0.00000000       0.00000000
Pd       4.93538499       4.96045134       7.40238662  T       0.00000000       0.00000000       0.00000000
Pd      10.45795264       6.76691053       1.50000000  F       0.00000000       0.00000000       0.00000000
Pd       0.00000000       7.38208422       3.44535000  F       0.00000000       0.00000000       0.00000000
Pd      10.43991375       6.78245558       5.40242713  F       0.00000000       0.00000000       0.00000000
Pd      12.26532573       7.45855397       7.38954670  T       0.00000000       0.00000000       0.00000000
Pd       4.92138948      11.07312632       3.44535000  F       0.00000000       0.00000000       0.00000000
Pd       1.23034737       9.84277895       3.44535000  F       0.00000000       0.00000000       0.00000000
Pd      11.67120661       9.23591801       5.37701028  F       0.00000000       0.00000000       0.00000000
Pd       1.18203626       9.80200676       7.35167919  T       0.00000000       0.00000000       0.00000000
Pd       0.61517368      11.68830001       1.50000000  F       0.00000000       0.00000000       0.00000000
Pd       2.46069474       0.00000000       3.44535000  F       0.00000000       0.00000000       0.00000000
Pd       2.40734134      -0.00767433       7.39999214  T       0.00000000       0.00000000       0.00000000
Pd       9.22719689      10.44932842       5.41286416  F       0.00000000       0.00000000       0.00000000
Pd       3.66390932       8.61608749       7.50351176  T       0.00000000       0.00000000       0.00000000
Pd       4.30621579       0.61517368       1.50000000  F       0.00000000       0.00000000       0.00000000
Pd      11.07312632       4.92138948       3.44535000  F       0.00000000       0.00000000       0.00000000
Pd       4.30621579       6.76691053       1.50000000  F       0.00000000       0.00000000       0.00000000
Pd       3.66761463       2.47209119       7.50309223  T       0.00000000       0.00000000       0.00000000
Pd       2.40838517       6.14074770       7.40967559  T       0.00000000       0.00000000       0.00000000
Pd       0.60433818       5.55187436       5.37993065  F       0.00000000       0.00000000       0.00000000
Pd       2.46069474       6.15173685       3.44535000  F       0.00000000       0.00000000       0.00000000
Pd       0.61517368       5.53656316       1.50000000  F       0.00000000       0.00000000       0.00000000
Pd       1.17605236       3.66056085       7.35094499  T       0.00000000       0.00000000       0.00000000
Pd      11.67123156       3.08419612       5.37703229  F       0.00000000       0.00000000       0.00000000
Pd       6.87792685       6.64799972       9.92296617  T       0.00000000       0.00000000       0.00000000
Pd       1.23034737       3.69104211       3.44535000  F       0.00000000       0.00000000       0.00000000
Pd      12.25518321       1.31389689       7.39201978  T       0.00000000       0.00000000       0.00000000
Pd      10.43990395       0.63072067       5.40242717  F       0.00000000       0.00000000       0.00000000
Pd       0.00000000       1.23034737       3.44535000  F       0.00000000       0.00000000       0.00000000
Pd       1.84552105       1.84552105       1.50000000  F       0.00000000       0.00000000       0.00000000
Pd      10.45795264       0.61517368       1.50000000  F       0.00000000       0.00000000       0.00000000
Pd      11.08872437      11.10910271       7.39268613  T       0.00000000       0.00000000       0.00000000
Pd       3.07550809      10.44932540       5.41290581  F       0.00000000       0.00000000       0.00000000
Pd       3.69104211       2.46069474       3.44535000  F       0.00000000       0.00000000       0.00000000
Pd       1.85442396       1.83305046       5.40626716  F       0.00000000       0.00000000       0.00000000
Pd      11.68830001       3.07586842       1.50000000  F       0.00000000       0.00000000       0.00000000
Pd       0.76793906       0.49739358       9.90577206  T       0.00000000       0.00000000       0.00000000
Pd       2.31447219       3.46159781       9.75808434  T       0.00000000       0.00000000       0.00000000
Pd       3.81806766       6.68128387       9.92733412  T       0.00000000       0.00000000       0.00000000
Pd       6.15173685       1.23034737       3.44535000  F       0.00000000       0.00000000       0.00000000
Pd       4.28818081       0.63072761       5.40241929  F       0.00000000       0.00000000       0.00000000
Pd       6.10978606       1.30780852       7.37945446  T       0.00000000       0.00000000       0.00000000
Pd       5.53656316       3.07586842       1.50000000  F       0.00000000       0.00000000       0.00000000
Pd       1.85444455       7.98478761       5.40627529  F       0.00000000       0.00000000       0.00000000
Pd       5.38448194       3.37235867       9.69394995  T       0.00000000       0.00000000       0.00000000
Pd       3.07586842      10.45795264       1.50000000  F       0.00000000       0.00000000       0.00000000
Pd       3.07586842       4.30621579       1.50000000  F       0.00000000       0.00000000       0.00000000
Pd       3.07547731       4.29761827       5.41291946  F       0.00000000       0.00000000       0.00000000
Pd      11.07923455       4.97179652       7.39816496  T       0.00000000       0.00000000       0.00000000
Pd      11.07312632      11.07312632       3.44535000  F       0.00000000       0.00000000       0.00000000
Pd      10.01017386       0.53892783       9.90565363  T       0.00000000       0.00000000       0.00000000
Pd       6.90961879       0.48028537       9.89223739  T       0.00000000       0.00000000       0.00000000
Pd       8.47314064       9.60430337       9.75538042  T       0.00000000       0.00000000       0.00000000
Pd       0.72378717       6.65873267       9.91856841  T       0.00000000       0.00000000       0.00000000
Pd       5.36998566       9.51250216       9.68482787  T       0.00000000       0.00000000       0.00000000
Pd      11.55710513       3.38012387       9.67518718  T       0.00000000       0.00000000       0.00000000
Pd       8.46961376       3.47480805       9.83992614  T       0.00000000       0.00000000       0.00000000
Pd       9.96600466       6.68438160       9.92053163  T       0.00000000       0.00000000       0.00000000
Pd       3.85160993       0.52670742       9.89999606  T       0.00000000       0.00000000       0.00000000
Pd       2.31503076       9.60421546       9.76262984  T       0.00000000       0.00000000       0.00000000
Pd       4.93040433      11.10723955       7.39297703  T       0.00000000       0.00000000       0.00000000
Pd      11.51965122       9.53070073       9.68527608  T       0.00000000       0.00000000       0.00000000
O        9.12390790       4.18168107      11.61201836  T       0.00000000       0.00000000       0.00000000
C        9.12067248       3.38798092      12.78321970  T       0.00000000       0.00000000       0.00000000
H        8.09752319       3.09495378      13.10440654  T       0.00000000       0.00000000       0.00000000
H        9.73505719       2.46768784      12.69402836  T       0.00000000       0.00000000       0.00000000
H        9.56442611       4.03202028      13.57057093  T       0.00000000       0.00000000       0.00000000
