117
Lattice="12.303473692417112 0.0 0.0 0.0 12.303473692417114 0.0 0.0 0.0 29.165420746594243" Properties=species:S:1:pos:R:3:move_mask:L:1:momenta:R:3 adsorbate_info="_JSON {\"site\": {\"coordinates\": [3.9038820859068903, 8.619711231396508, 10.030481257032184], \"connectivity\": 4, \"topology\": [6, 14, 104, 109], \"n_vector\": [0.017492102677278625, 0.3869861907642002, 0.9219195813636576], \"h_vector\": [-0.8427787215515172, 0.5022582244697155, -0.19354767488275137], \"site_formula\": {\"O\": 2, \"Pd\": 2}}, \"smiles\": \"ClOC\", \"mdf\": 2.1897446210091642, \"adsorbate_formula\": \"CH3O\"}" mace_E=-585.8673040313136 converged=T n_steps=69 d_min=2.13483925479088 site_type=unknown dE_rel_meV=0 original_idx=158 rank=6 E_MACE=-585.895463546894 pbc="T T T"
O        8.49156895      11.59266238       9.35671270  T       0.00000000       0.00000000       0.00000000
O       11.49900225       5.38373910       9.36631265  T       0.00000000       0.00000000       0.00000000
O       11.55732841       1.64870832      10.58517601  T       0.00000000       0.00000000       0.00000000
O       11.52465764      11.54944383       9.37090451  T       0.00000000       0.00000000       0.00000000
O        8.44720060       7.82039577      10.53814719  T       0.00000000       0.00000000       0.00000000
O        5.38958537      11.56234549       9.32196396  T       0.00000000       0.00000000       0.00000000
O        5.43936637       7.77629054      10.58737313  T       0.00000000       0.00000000       0.00000000
O        8.48358905       5.43524696       9.34266327  T       0.00000000       0.00000000       0.00000000
O       11.55936877       7.78884127      10.56296413  T       0.00000000       0.00000000       0.00000000
O        2.33547138       5.43948312       9.34891903  T       0.00000000       0.00000000       0.00000000
O        2.31452168       1.67624081      10.54004683  T       0.00000000       0.00000000       0.00000000
O        2.30897459      11.61247839       9.32909712  T       0.00000000       0.00000000       0.00000000
O        5.34836995       5.39797565       9.37262111  T       0.00000000       0.00000000       0.00000000
O        5.41288931       1.64292891      10.55740073  T       0.00000000       0.00000000       0.00000000
O        2.25261339       7.80290227      10.54337667  T       0.00000000       0.00000000       0.00000000
O        8.46978413       1.67569781      10.54703790  T       0.00000000       0.00000000       0.00000000
Pd       5.53656316       9.22760527       1.50000000  F       0.00000000       0.00000000       0.00000000
Pd       6.10391892       7.45081597       7.38954843  T       0.00000000       0.00000000       0.00000000
Pd       4.28815433       6.78245218       5.40241719  F       0.00000000       0.00000000       0.00000000
Pd       6.15173685       7.38208422       3.44535000  F       0.00000000       0.00000000       0.00000000
Pd       7.33701048       3.65480707       7.35506765  T       0.00000000       0.00000000       0.00000000
Pd       5.51948843       3.08419342       5.37702261  F       0.00000000       0.00000000       0.00000000
Pd       6.76691053       5.53656316       1.50000000  F       0.00000000       0.00000000       0.00000000
Pd       7.38208422       9.84277895       3.44535000  F       0.00000000       0.00000000       0.00000000
Pd       7.99725790       7.99725790       1.50000000  F       0.00000000       0.00000000       0.00000000
Pd       5.51951598       9.23590192       5.37700272  F       0.00000000       0.00000000       0.00000000
Pd       8.00616182       7.98477587       5.40628129  F       0.00000000       0.00000000       0.00000000
Pd       6.76691053      11.68830001       1.50000000  F       0.00000000       0.00000000       0.00000000
Pd       8.61243158       0.00000000       3.44535000  F       0.00000000       0.00000000       0.00000000
Pd       6.75606179      11.70364973       5.37992114  F       0.00000000       0.00000000       0.00000000
Pd       8.55732959      -0.02356579       7.40388803  T       0.00000000       0.00000000       0.00000000
Pd       9.84277895       8.61243158       3.44535000  F       0.00000000       0.00000000       0.00000000
Pd       7.38208422       3.69104211       3.44535000  F       0.00000000       0.00000000       0.00000000
Pd       3.69104211       8.61243158       3.44535000  F       0.00000000       0.00000000       0.00000000
Pd       9.81338894       8.62615819       7.50583462  T       0.00000000       0.00000000       0.00000000
Pd       9.22760527      10.45795264       1.50000000  F       0.00000000       0.00000000       0.00000000
Pd       7.30979777       9.79524386       7.37997415  T       0.00000000       0.00000000       0.00000000
Pd       1.84552105       7.99725790       1.50000000  F       0.00000000       0.00000000       0.00000000
Pd      11.68830001       9.22760527       1.50000000  F       0.00000000       0.00000000       0.00000000
Pd       0.60431863      11.70356305       5.37989931  F       0.00000000       0.00000000       0.00000000
Pd       8.61243158       6.15173685       3.44535000  F       0.00000000       0.00000000       0.00000000
Pd       6.75605293       5.55187564       5.37990856  F       0.00000000       0.00000000       0.00000000
Pd       8.56058231       6.14384666       7.40022401  T       0.00000000       0.00000000       0.00000000
Pd       7.99725790       1.84552105       1.50000000  F       0.00000000       0.00000000       0.00000000
Pd       9.84277895       2.46069474       3.44535000  F       0.00000000       0.00000000       0.00000000
Pd       8.00617313       1.83308050       5.40627808  F       0.00000000       0.00000000       0.00000000
Pd       9.82058411       2.45509664       7.49707443  T       0.00000000       0.00000000       0.00000000
Pd       9.22760527       4.30621579       1.50000000  F       0.00000000       0.00000000       0.00000000
Pd       4.92138948       4.92138948       3.44535000  F       0.00000000       0.00000000       0.00000000
Pd       9.22722207       4.29761474       5.41287912  F       0.00000000       0.00000000       0.00000000
Pd       4.92979248       4.96244859       7.39689111  T       0.00000000       0.00000000       0.00000000
Pd      10.45795264       6.76691053       1.50000000  F       0.00000000       0.00000000       0.00000000
Pd       0.00000000       7.38208422       3.44535000  F       0.00000000       0.00000000       0.00000000
Pd      10.43991375       6.78245558       5.40242713  F       0.00000000       0.00000000       0.00000000
Pd      12.25885045       7.45904631       7.38061403  T       0.00000000       0.00000000       0.00000000
Pd       4.92138948      11.07312632       3.44535000  F       0.00000000       0.00000000       0.00000000
Pd       1.23034737       9.84277895       3.44535000  F       0.00000000       0.00000000       0.00000000
Pd      11.67120661       9.23591801       5.37701028  F       0.00000000       0.00000000       0.00000000
Pd       1.18922783       9.79916696       7.37996658  T       0.00000000       0.00000000       0.00000000
Pd       0.61517368      11.68830001       1.50000000  F       0.00000000       0.00000000       0.00000000
Pd       2.46069474       0.00000000       3.44535000  F       0.00000000       0.00000000       0.00000000
Pd       2.41025055      -0.01572005       7.39186239  T       0.00000000       0.00000000       0.00000000
Pd       9.22719689      10.44932842       5.41286416  F       0.00000000       0.00000000       0.00000000
Pd       3.67123605       8.62600351       7.51026104  T       0.00000000       0.00000000       0.00000000
Pd       4.30621579       0.61517368       1.50000000  F       0.00000000       0.00000000       0.00000000
Pd      11.07312632       4.92138948       3.44535000  F       0.00000000       0.00000000       0.00000000
Pd       4.30621579       6.76691053       1.50000000  F       0.00000000       0.00000000       0.00000000
Pd       3.67227421       2.46806047       7.49564068  T       0.00000000       0.00000000       0.00000000
Pd       2.41014823       6.14601994       7.40275587  T       0.00000000       0.00000000       0.00000000
Pd       0.60433818       5.55187436       5.37993065  F       0.00000000       0.00000000       0.00000000
Pd       2.46069474       6.15173685       3.44535000  F       0.00000000       0.00000000       0.00000000
Pd       0.61517368       5.53656316       1.50000000  F       0.00000000       0.00000000       0.00000000
Pd       1.18600083       3.65225230       7.35258171  T       0.00000000       0.00000000       0.00000000
Pd      11.67123156       3.08419612       5.37703229  F       0.00000000       0.00000000       0.00000000
Pd       6.92407179       6.64732741       9.90316078  T       0.00000000       0.00000000       0.00000000
Pd       1.23034737       3.69104211       3.44535000  F       0.00000000       0.00000000       0.00000000
Pd      12.26808350       1.30642252       7.39281654  T       0.00000000       0.00000000       0.00000000
Pd      10.43990395       0.63072067       5.40242717  F       0.00000000       0.00000000       0.00000000
Pd       0.00000000       1.23034737       3.44535000  F       0.00000000       0.00000000       0.00000000
Pd       1.84552105       1.84552105       1.50000000  F       0.00000000       0.00000000       0.00000000
Pd      10.45795264       0.61517368       1.50000000  F       0.00000000       0.00000000       0.00000000
Pd      11.08300053      11.11091712       7.39592988  T       0.00000000       0.00000000       0.00000000
Pd       3.07550809      10.44932540       5.41290581  F       0.00000000       0.00000000       0.00000000
Pd       3.69104211       2.46069474       3.44535000  F       0.00000000       0.00000000       0.00000000
Pd       1.85442396       1.83305046       5.40626716  F       0.00000000       0.00000000       0.00000000
Pd      11.68830001       3.07586842       1.50000000  F       0.00000000       0.00000000       0.00000000
Pd       0.77195390       0.51640971       9.91714993  T       0.00000000       0.00000000       0.00000000
Pd       2.34842887       3.46188169       9.75709042  T       0.00000000       0.00000000       0.00000000
Pd       3.85705250       6.70619841       9.92122828  T       0.00000000       0.00000000       0.00000000
Pd       6.15173685       1.23034737       3.44535000  F       0.00000000       0.00000000       0.00000000
Pd       4.28818081       0.63072761       5.40241929  F       0.00000000       0.00000000       0.00000000
Pd       6.11513040       1.30874379       7.38672903  T       0.00000000       0.00000000       0.00000000
Pd       5.53656316       3.07586842       1.50000000  F       0.00000000       0.00000000       0.00000000
Pd       1.85444455       7.98478761       5.40627529  F       0.00000000       0.00000000       0.00000000
Pd       5.39502348       3.38104000       9.67426930  T       0.00000000       0.00000000       0.00000000
Pd       3.07586842      10.45795264       1.50000000  F       0.00000000       0.00000000       0.00000000
Pd       3.07586842       4.30621579       1.50000000  F       0.00000000       0.00000000       0.00000000
Pd       3.07547731       4.29761827       5.41291946  F       0.00000000       0.00000000       0.00000000
Pd      11.08090882       4.95407498       7.39060626  T       0.00000000       0.00000000       0.00000000
Pd      11.07312632      11.07312632       3.44535000  F       0.00000000       0.00000000       0.00000000
Pd      10.02325226       0.53414163       9.92253730  T       0.00000000       0.00000000       0.00000000
Pd       6.93727049       0.51349191       9.90170297  T       0.00000000       0.00000000       0.00000000
Pd       8.47317292       9.61424474       9.77342082  T       0.00000000       0.00000000       0.00000000
Pd       0.75768238       6.63847359       9.89441670  T       0.00000000       0.00000000       0.00000000
Pd       5.46832426       9.56353247       9.77493421  T       0.00000000       0.00000000       0.00000000
Pd      11.54661583       3.37528836       9.67806166  T       0.00000000       0.00000000       0.00000000
Pd       8.50367309       3.45881077       9.75830784  T       0.00000000       0.00000000       0.00000000
Pd      10.00830903       6.68951919       9.90772682  T       0.00000000       0.00000000       0.00000000
Pd       3.87080627       0.53432708       9.90221507  T       0.00000000       0.00000000       0.00000000
Pd       2.26658496       9.63478470       9.81530657  T       0.00000000       0.00000000       0.00000000
Pd       4.92915776      11.11085604       7.38437743  T       0.00000000       0.00000000       0.00000000
Pd      11.58560433       9.53406929       9.67855951  T       0.00000000       0.00000000       0.00000000
O        3.88190203      10.09367617      11.10971471  T       0.00000000       0.00000000       0.00000000
C        3.86125958       9.61097611      12.45911664  T       0.00000000       0.00000000       0.00000000
H        3.13586489      10.22829372      13.02300006  T       0.00000000       0.00000000       0.00000000
H        3.57438585       8.54606277      12.52936974  T       0.00000000       0.00000000       0.00000000
H        4.86352982       9.75290977      12.90270730  T       0.00000000       0.00000000       0.00000000
