117
Lattice="12.303473692417112 0.0 0.0 0.0 12.303473692417114 0.0 0.0 0.0 29.165420746594243" Properties=species:S:1:pos:R:3:move_mask:L:1:momenta:R:3 adsorbate_info="_JSON {\"site\": {\"coordinates\": [12.095853030826419, 6.52561793743041, 9.845244317346634], \"connectivity\": 3, \"topology\": [1, 8, 103], \"n_vector\": [0.030908499414700006, -0.3529333571413519, 0.9351378027226076], \"h_vector\": [0.7623041165784519, -0.5820884411187257, -0.28295844317411306], \"site_formula\": {\"O\": 2, \"Pd\": 1}}, \"smiles\": \"ClOC\", \"mdf\": 1.9516296440272491, \"adsorbate_formula\": \"CH3O\"}" mace_E=-585.4037664110308 converged=T n_steps=60 d_min=2.0419937346883033 site_type=atop dE_rel_meV=0 original_idx=494 rank=248 E_MACE=-585.4179926072586 pbc="T T T"
O        8.42418419      11.60146682       9.35617836  T       0.00000000       0.00000000       0.00000000
O       11.42071349       5.41915651       9.35182912  T       0.00000000       0.00000000       0.00000000
O       11.49072860       1.66310113      10.56474599  T       0.00000000       0.00000000       0.00000000
O       11.46474140      11.55052840       9.38681212  T       0.00000000       0.00000000       0.00000000
O        8.37441957       7.84320319      10.56238177  T       0.00000000       0.00000000       0.00000000
O        5.30212922      11.56921714       9.37262238  T       0.00000000       0.00000000       0.00000000
O        5.33786178       7.82079322      10.58806485  T       0.00000000       0.00000000       0.00000000
O        8.40746887       5.45890858       9.36342919  T       0.00000000       0.00000000       0.00000000
O       11.47582752       7.81468923      10.60168271  T       0.00000000       0.00000000       0.00000000
O        2.27183575       5.47944708       9.33256605  T       0.00000000       0.00000000       0.00000000
O        2.24511445       1.70340277      10.53024747  T       0.00000000       0.00000000       0.00000000
O        2.26930317      11.61012431       9.36025652  T       0.00000000       0.00000000       0.00000000
O        5.28603243       5.42881845       9.37819106  T       0.00000000       0.00000000       0.00000000
O        5.35202533       1.67144793      10.55637744  T       0.00000000       0.00000000       0.00000000
O        2.24964462       7.86213491      10.57974486  T       0.00000000       0.00000000       0.00000000
O        8.40212487       1.68643457      10.53692123  T       0.00000000       0.00000000       0.00000000
Pd       5.53656316       9.22760527       1.50000000  F       0.00000000       0.00000000       0.00000000
Pd       6.10211670       7.46210739       7.39210509  T       0.00000000       0.00000000       0.00000000
Pd       4.28815433       6.78245218       5.40241719  F       0.00000000       0.00000000       0.00000000
Pd       6.15173685       7.38208422       3.44535000  F       0.00000000       0.00000000       0.00000000
Pd       7.32128642       3.65877598       7.35487823  T       0.00000000       0.00000000       0.00000000
Pd       5.51948843       3.08419342       5.37702261  F       0.00000000       0.00000000       0.00000000
Pd       6.76691053       5.53656316       1.50000000  F       0.00000000       0.00000000       0.00000000
Pd       7.38208422       9.84277895       3.44535000  F       0.00000000       0.00000000       0.00000000
Pd       7.99725790       7.99725790       1.50000000  F       0.00000000       0.00000000       0.00000000
Pd       5.51951598       9.23590192       5.37700272  F       0.00000000       0.00000000       0.00000000
Pd       8.00616182       7.98477587       5.40628129  F       0.00000000       0.00000000       0.00000000
Pd       6.76691053      11.68830001       1.50000000  F       0.00000000       0.00000000       0.00000000
Pd       8.61243158       0.00000000       3.44535000  F       0.00000000       0.00000000       0.00000000
Pd       6.75606179      11.70364973       5.37992114  F       0.00000000       0.00000000       0.00000000
Pd       8.54216531      -0.00423906       7.40819007  T       0.00000000       0.00000000       0.00000000
Pd       9.84277895       8.61243158       3.44535000  F       0.00000000       0.00000000       0.00000000
Pd       7.38208422       3.69104211       3.44535000  F       0.00000000       0.00000000       0.00000000
Pd       3.69104211       8.61243158       3.44535000  F       0.00000000       0.00000000       0.00000000
Pd       9.81075506       8.62364054       7.50503013  T       0.00000000       0.00000000       0.00000000
Pd       9.22760527      10.45795264       1.50000000  F       0.00000000       0.00000000       0.00000000
Pd       7.32208269       9.81023370       7.35277453  T       0.00000000       0.00000000       0.00000000
Pd       1.84552105       7.99725790       1.50000000  F       0.00000000       0.00000000       0.00000000
Pd      11.68830001       9.22760527       1.50000000  F       0.00000000       0.00000000       0.00000000
Pd       0.60431863      11.70356305       5.37989931  F       0.00000000       0.00000000       0.00000000
Pd       8.61243158       6.15173685       3.44535000  F       0.00000000       0.00000000       0.00000000
Pd       6.75605293       5.55187564       5.37990856  F       0.00000000       0.00000000       0.00000000
Pd       8.54106827       6.14306392       7.40816559  T       0.00000000       0.00000000       0.00000000
Pd       7.99725790       1.84552105       1.50000000  F       0.00000000       0.00000000       0.00000000
Pd       9.84277895       2.46069474       3.44535000  F       0.00000000       0.00000000       0.00000000
Pd       8.00617313       1.83308050       5.40627808  F       0.00000000       0.00000000       0.00000000
Pd       9.80893552       2.47685965       7.50630602  T       0.00000000       0.00000000       0.00000000
Pd       9.22760527       4.30621579       1.50000000  F       0.00000000       0.00000000       0.00000000
Pd       4.92138948       4.92138948       3.44535000  F       0.00000000       0.00000000       0.00000000
Pd       9.22722207       4.29761474       5.41287912  F       0.00000000       0.00000000       0.00000000
Pd       4.91137984       4.96884318       7.39681722  T       0.00000000       0.00000000       0.00000000
Pd      10.45795264       6.76691053       1.50000000  F       0.00000000       0.00000000       0.00000000
Pd       0.00000000       7.38208422       3.44535000  F       0.00000000       0.00000000       0.00000000
Pd      10.43991375       6.78245558       5.40242713  F       0.00000000       0.00000000       0.00000000
Pd      12.27369666       7.46781914       7.45245985  T       0.00000000       0.00000000       0.00000000
Pd       4.92138948      11.07312632       3.44535000  F       0.00000000       0.00000000       0.00000000
Pd       1.23034737       9.84277895       3.44535000  F       0.00000000       0.00000000       0.00000000
Pd      11.67120661       9.23591801       5.37701028  F       0.00000000       0.00000000       0.00000000
Pd       1.17822676       9.81744767       7.34170293  T       0.00000000       0.00000000       0.00000000
Pd       0.61517368      11.68830001       1.50000000  F       0.00000000       0.00000000       0.00000000
Pd       2.46069474       0.00000000       3.44535000  F       0.00000000       0.00000000       0.00000000
Pd       2.39447472      -0.00195891       7.41005789  T       0.00000000       0.00000000       0.00000000
Pd       9.22719689      10.44932842       5.41286416  F       0.00000000       0.00000000       0.00000000
Pd       3.65747745       8.62704313       7.50878505  T       0.00000000       0.00000000       0.00000000
Pd       4.30621579       0.61517368       1.50000000  F       0.00000000       0.00000000       0.00000000
Pd      11.07312632       4.92138948       3.44535000  F       0.00000000       0.00000000       0.00000000
Pd       4.30621579       6.76691053       1.50000000  F       0.00000000       0.00000000       0.00000000
Pd       3.64651617       2.47446282       7.51738184  T       0.00000000       0.00000000       0.00000000
Pd       2.39000342       6.15436551       7.40466242  T       0.00000000       0.00000000       0.00000000
Pd       0.60433818       5.55187436       5.37993065  F       0.00000000       0.00000000       0.00000000
Pd       2.46069474       6.15173685       3.44535000  F       0.00000000       0.00000000       0.00000000
Pd       0.61517368       5.53656316       1.50000000  F       0.00000000       0.00000000       0.00000000
Pd       1.16668337       3.65955395       7.34996425  T       0.00000000       0.00000000       0.00000000
Pd      11.67123156       3.08419612       5.37703229  F       0.00000000       0.00000000       0.00000000
Pd       6.84712468       6.67103288       9.93143449  T       0.00000000       0.00000000       0.00000000
Pd       1.23034737       3.69104211       3.44535000  F       0.00000000       0.00000000       0.00000000
Pd      12.25066487       1.31110956       7.38985250  T       0.00000000       0.00000000       0.00000000
Pd      10.43990395       0.63072067       5.40242717  F       0.00000000       0.00000000       0.00000000
Pd       0.00000000       1.23034737       3.44535000  F       0.00000000       0.00000000       0.00000000
Pd       1.84552105       1.84552105       1.50000000  F       0.00000000       0.00000000       0.00000000
Pd      10.45795264       0.61517368       1.50000000  F       0.00000000       0.00000000       0.00000000
Pd      11.07168471      11.12522083       7.40427150  T       0.00000000       0.00000000       0.00000000
Pd       3.07550809      10.44932540       5.41290581  F       0.00000000       0.00000000       0.00000000
Pd       3.69104211       2.46069474       3.44535000  F       0.00000000       0.00000000       0.00000000
Pd       1.85442396       1.83305046       5.40626716  F       0.00000000       0.00000000       0.00000000
Pd      11.68830001       3.07586842       1.50000000  F       0.00000000       0.00000000       0.00000000
Pd       0.71081778       0.52580405       9.91406244  T       0.00000000       0.00000000       0.00000000
Pd       2.28292076       3.50069057       9.77067755  T       0.00000000       0.00000000       0.00000000
Pd       3.79027609       6.71717265       9.93642947  T       0.00000000       0.00000000       0.00000000
Pd       6.15173685       1.23034737       3.44535000  F       0.00000000       0.00000000       0.00000000
Pd       4.28818081       0.63072761       5.40241929  F       0.00000000       0.00000000       0.00000000
Pd       6.09842631       1.31411981       7.38455336  T       0.00000000       0.00000000       0.00000000
Pd       5.53656316       3.07586842       1.50000000  F       0.00000000       0.00000000       0.00000000
Pd       1.85444455       7.98478761       5.40627529  F       0.00000000       0.00000000       0.00000000
Pd       5.33743795       3.41500705       9.68105760  T       0.00000000       0.00000000       0.00000000
Pd       3.07586842      10.45795264       1.50000000  F       0.00000000       0.00000000       0.00000000
Pd       3.07586842       4.30621579       1.50000000  F       0.00000000       0.00000000       0.00000000
Pd       3.07547731       4.29761827       5.41291946  F       0.00000000       0.00000000       0.00000000
Pd      11.06716509       4.97437404       7.38334489  T       0.00000000       0.00000000       0.00000000
Pd      11.07312632      11.07312632       3.44535000  F       0.00000000       0.00000000       0.00000000
Pd       9.95592300       0.54286506       9.91344493  T       0.00000000       0.00000000       0.00000000
Pd       6.86540535       0.52268744       9.90579318  T       0.00000000       0.00000000       0.00000000
Pd       8.41967503       9.62476760       9.76905254  T       0.00000000       0.00000000       0.00000000
Pd       0.69979248       6.64986741       9.99344948  T       0.00000000       0.00000000       0.00000000
Pd       5.33874453       9.55491466       9.68978275  T       0.00000000       0.00000000       0.00000000
Pd      11.46933046       3.40387634       9.67960583  T       0.00000000       0.00000000       0.00000000
Pd       8.44370011       3.47929958       9.76926372  T       0.00000000       0.00000000       0.00000000
Pd       9.93118640       6.70776087       9.92816010  T       0.00000000       0.00000000       0.00000000
Pd       3.80268235       0.56574356       9.90350634  T       0.00000000       0.00000000       0.00000000
Pd       2.27628954       9.62642146       9.76667789  T       0.00000000       0.00000000       0.00000000
Pd       4.91896032      11.11800664       7.39352741  T       0.00000000       0.00000000       0.00000000
Pd      11.51575324       9.52622137       9.66965004  T       0.00000000       0.00000000       0.00000000
O       13.13912478       5.52513077      11.70032612  T       0.00000000       0.00000000       0.00000000
C       12.08573458       5.62943050      12.63325546  T       0.00000000       0.00000000       0.00000000
H       12.25291521       4.81578477      13.36943821  T       0.00000000       0.00000000       0.00000000
H       12.08597668       6.60412297      13.16419058  T       0.00000000       0.00000000       0.00000000
H       11.07639969       5.47862362      12.18075848  T       0.00000000       0.00000000       0.00000000
