117
Lattice="12.303473692417112 0.0 0.0 0.0 12.303473692417114 0.0 0.0 0.0 29.165420746594243" Properties=species:S:1:pos:R:3:move_mask:L:1:momenta:R:3 adsorbate_info="_JSON {\"site\": {\"coordinates\": [11.58919101277282, 3.3360257621060567, 9.610743529501232], \"connectivity\": 1, \"topology\": [105], \"n_vector\": [0.02725099059442385, 0.2425116823322895, 0.9697656765652131], \"h_vector\": [1.0, 0.0, 0.0], \"site_formula\": {\"Pd\": 1}}, \"smiles\": \"ClOC\", \"mdf\": 1.7097869690905108, \"adsorbate_formula\": \"CH3O\"}" mace_E=-585.7504398499462 converged=T n_steps=54 d_min=2.134638559516385 site_type=unknown dE_rel_meV=0 original_idx=464 rank=4 E_MACE=-585.896490400182 pbc="T T T"
O        8.43325786      11.57328458       9.32232886  T       0.00000000       0.00000000       0.00000000
O       11.46261190       5.37961452       9.36910951  T       0.00000000       0.00000000       0.00000000
O       11.46825406       1.57778526      10.59712741  T       0.00000000       0.00000000       0.00000000
O       11.48986955      11.52829619       9.36758558  T       0.00000000       0.00000000       0.00000000
O        8.41648076       7.81797310      10.54064221  T       0.00000000       0.00000000       0.00000000
O        5.34227048      11.52735543       9.35167012  T       0.00000000       0.00000000       0.00000000
O        5.39123547       7.79013360      10.56438869  T       0.00000000       0.00000000       0.00000000
O        8.45491334       5.42527024       9.35793251  T       0.00000000       0.00000000       0.00000000
O       11.53527565       7.78368091      10.55992504  T       0.00000000       0.00000000       0.00000000
O        2.32566519       5.42890042       9.35105971  T       0.00000000       0.00000000       0.00000000
O        2.32341890       1.60891121      10.56781108  T       0.00000000       0.00000000       0.00000000
O        2.28809357      11.57831124       9.34143287  T       0.00000000       0.00000000       0.00000000
O        5.32825105       5.37800311       9.38006054  T       0.00000000       0.00000000       0.00000000
O        5.36556719       1.61618560      10.57715151  T       0.00000000       0.00000000       0.00000000
O        2.27458143       7.82026895      10.52965802  T       0.00000000       0.00000000       0.00000000
O        8.42468675       1.64746023      10.53501455  T       0.00000000       0.00000000       0.00000000
Pd       5.53656316       9.22760527       1.50000000  F       0.00000000       0.00000000       0.00000000
Pd       6.11384369       7.45344223       7.39104732  T       0.00000000       0.00000000       0.00000000
Pd       4.28815433       6.78245218       5.40241719  F       0.00000000       0.00000000       0.00000000
Pd       6.15173685       7.38208422       3.44535000  F       0.00000000       0.00000000       0.00000000
Pd       7.34490869       3.64295859       7.35427015  T       0.00000000       0.00000000       0.00000000
Pd       5.51948843       3.08419342       5.37702261  F       0.00000000       0.00000000       0.00000000
Pd       6.76691053       5.53656316       1.50000000  F       0.00000000       0.00000000       0.00000000
Pd       7.38208422       9.84277895       3.44535000  F       0.00000000       0.00000000       0.00000000
Pd       7.99725790       7.99725790       1.50000000  F       0.00000000       0.00000000       0.00000000
Pd       5.51951598       9.23590192       5.37700272  F       0.00000000       0.00000000       0.00000000
Pd       8.00616182       7.98477587       5.40628129  F       0.00000000       0.00000000       0.00000000
Pd       6.76691053      11.68830001       1.50000000  F       0.00000000       0.00000000       0.00000000
Pd       8.61243158       0.00000000       3.44535000  F       0.00000000       0.00000000       0.00000000
Pd       6.75606179      11.70364973       5.37992114  F       0.00000000       0.00000000       0.00000000
Pd       8.55178985       0.01086334       7.39314090  T       0.00000000       0.00000000       0.00000000
Pd       9.84277895       8.61243158       3.44535000  F       0.00000000       0.00000000       0.00000000
Pd       7.38208422       3.69104211       3.44535000  F       0.00000000       0.00000000       0.00000000
Pd       3.69104211       8.61243158       3.44535000  F       0.00000000       0.00000000       0.00000000
Pd       9.80942461       8.61335038       7.49780514  T       0.00000000       0.00000000       0.00000000
Pd       9.22760527      10.45795264       1.50000000  F       0.00000000       0.00000000       0.00000000
Pd       7.32737043       9.80726325       7.34120724  T       0.00000000       0.00000000       0.00000000
Pd       1.84552105       7.99725790       1.50000000  F       0.00000000       0.00000000       0.00000000
Pd      11.68830001       9.22760527       1.50000000  F       0.00000000       0.00000000       0.00000000
Pd       0.60431863      11.70356305       5.37989931  F       0.00000000       0.00000000       0.00000000
Pd       8.61243158       6.15173685       3.44535000  F       0.00000000       0.00000000       0.00000000
Pd       6.75605293       5.55187564       5.37990856  F       0.00000000       0.00000000       0.00000000
Pd       8.55671840       6.13034212       7.40871358  T       0.00000000       0.00000000       0.00000000
Pd       7.99725790       1.84552105       1.50000000  F       0.00000000       0.00000000       0.00000000
Pd       9.84277895       2.46069474       3.44535000  F       0.00000000       0.00000000       0.00000000
Pd       8.00617313       1.83308050       5.40627808  F       0.00000000       0.00000000       0.00000000
Pd       9.85275810       2.48152387       7.53302567  T       0.00000000       0.00000000       0.00000000
Pd       9.22760527       4.30621579       1.50000000  F       0.00000000       0.00000000       0.00000000
Pd       4.92138948       4.92138948       3.44535000  F       0.00000000       0.00000000       0.00000000
Pd       9.22722207       4.29761474       5.41287912  F       0.00000000       0.00000000       0.00000000
Pd       4.94217577       4.95503670       7.39597309  T       0.00000000       0.00000000       0.00000000
Pd      10.45795264       6.76691053       1.50000000  F       0.00000000       0.00000000       0.00000000
Pd       0.00000000       7.38208422       3.44535000  F       0.00000000       0.00000000       0.00000000
Pd      10.43991375       6.78245558       5.40242713  F       0.00000000       0.00000000       0.00000000
Pd      12.25730398       7.45020876       7.38127215  T       0.00000000       0.00000000       0.00000000
Pd       4.92138948      11.07312632       3.44535000  F       0.00000000       0.00000000       0.00000000
Pd       1.23034737       9.84277895       3.44535000  F       0.00000000       0.00000000       0.00000000
Pd      11.67120661       9.23591801       5.37701028  F       0.00000000       0.00000000       0.00000000
Pd       1.17285461       9.80455563       7.34373598  T       0.00000000       0.00000000       0.00000000
Pd       0.61517368      11.68830001       1.50000000  F       0.00000000       0.00000000       0.00000000
Pd       2.46069474       0.00000000       3.44535000  F       0.00000000       0.00000000       0.00000000
Pd       2.40224592      -0.00808550       7.40097703  T       0.00000000       0.00000000       0.00000000
Pd       9.22719689      10.44932842       5.41286416  F       0.00000000       0.00000000       0.00000000
Pd       3.66313859       8.61139061       7.49848852  T       0.00000000       0.00000000       0.00000000
Pd       4.30621579       0.61517368       1.50000000  F       0.00000000       0.00000000       0.00000000
Pd      11.07312632       4.92138948       3.44535000  F       0.00000000       0.00000000       0.00000000
Pd       4.30621579       6.76691053       1.50000000  F       0.00000000       0.00000000       0.00000000
Pd       3.64486417       2.48267152       7.53580112  T       0.00000000       0.00000000       0.00000000
Pd       2.41117189       6.12295975       7.40648517  T       0.00000000       0.00000000       0.00000000
Pd       0.60433818       5.55187436       5.37993065  F       0.00000000       0.00000000       0.00000000
Pd       2.46069474       6.15173685       3.44535000  F       0.00000000       0.00000000       0.00000000
Pd       0.61517368       5.53656316       1.50000000  F       0.00000000       0.00000000       0.00000000
Pd       1.17816502       3.65174820       7.37912339  T       0.00000000       0.00000000       0.00000000
Pd      11.67123156       3.08419612       5.37703229  F       0.00000000       0.00000000       0.00000000
Pd       6.89502789       6.63702425       9.91678210  T       0.00000000       0.00000000       0.00000000
Pd       1.23034737       3.69104211       3.44535000  F       0.00000000       0.00000000       0.00000000
Pd      12.26937053       1.29900654       7.38539603  T       0.00000000       0.00000000       0.00000000
Pd      10.43990395       0.63072067       5.40242717  F       0.00000000       0.00000000       0.00000000
Pd       0.00000000       1.23034737       3.44535000  F       0.00000000       0.00000000       0.00000000
Pd       1.84552105       1.84552105       1.50000000  F       0.00000000       0.00000000       0.00000000
Pd      10.45795264       0.61517368       1.50000000  F       0.00000000       0.00000000       0.00000000
Pd      11.07019228      11.11503225       7.39113863  T       0.00000000       0.00000000       0.00000000
Pd       3.07550809      10.44932540       5.41290581  F       0.00000000       0.00000000       0.00000000
Pd       3.69104211       2.46069474       3.44535000  F       0.00000000       0.00000000       0.00000000
Pd       1.85442396       1.83305046       5.40626716  F       0.00000000       0.00000000       0.00000000
Pd      11.68830001       3.07586842       1.50000000  F       0.00000000       0.00000000       0.00000000
Pd       0.73536459       0.49998150       9.91879423  T       0.00000000       0.00000000       0.00000000
Pd       2.38881040       3.43874114       9.85511713  T       0.00000000       0.00000000       0.00000000
Pd       3.84165005       6.68605470       9.91383391  T       0.00000000       0.00000000       0.00000000
Pd       6.15173685       1.23034737       3.44535000  F       0.00000000       0.00000000       0.00000000
Pd       4.28818081       0.63072761       5.40241929  F       0.00000000       0.00000000       0.00000000
Pd       6.09019776       1.31574838       7.39447987  T       0.00000000       0.00000000       0.00000000
Pd       5.53656316       3.07586842       1.50000000  F       0.00000000       0.00000000       0.00000000
Pd       1.85444455       7.98478761       5.40627529  F       0.00000000       0.00000000       0.00000000
Pd       5.33337311       3.36437881       9.70087672  T       0.00000000       0.00000000       0.00000000
Pd       3.07586842      10.45795264       1.50000000  F       0.00000000       0.00000000       0.00000000
Pd       3.07586842       4.30621579       1.50000000  F       0.00000000       0.00000000       0.00000000
Pd       3.07547731       4.29761827       5.41291946  F       0.00000000       0.00000000       0.00000000
Pd      11.08206812       4.95612967       7.40003490  T       0.00000000       0.00000000       0.00000000
Pd      11.07312632      11.07312632       3.44535000  F       0.00000000       0.00000000       0.00000000
Pd       9.96893582       0.49876423       9.89875850  T       0.00000000       0.00000000       0.00000000
Pd       6.88742976       0.49030997       9.89778321  T       0.00000000       0.00000000       0.00000000
Pd       8.45026638       9.59866115       9.74785822  T       0.00000000       0.00000000       0.00000000
Pd       0.74508159       6.64766940       9.89063906  T       0.00000000       0.00000000       0.00000000
Pd       5.38986800       9.51881824       9.66276839  T       0.00000000       0.00000000       0.00000000
Pd      11.44312511       3.38297100       9.81655995  T       0.00000000       0.00000000       0.00000000
Pd       8.48891081       3.44177914       9.76783845  T       0.00000000       0.00000000       0.00000000
Pd       9.97803459       6.68230537       9.91869035  T       0.00000000       0.00000000       0.00000000
Pd       3.83598886       0.49837611       9.90518646  T       0.00000000       0.00000000       0.00000000
Pd       2.30611063       9.60400942       9.74953456  T       0.00000000       0.00000000       0.00000000
Pd       4.92063397      11.11093644       7.38107316  T       0.00000000       0.00000000       0.00000000
Pd      11.53842772       9.51213756       9.65839327  T       0.00000000       0.00000000       0.00000000
O       13.03245640       3.66617293      11.16485250  T       0.00000000       0.00000000       0.00000000
C       12.98839568       4.54746422      12.27482324  T       0.00000000       0.00000000       0.00000000
H       13.74466272       4.22486788      13.01597982  T       0.00000000       0.00000000       0.00000000
H       13.19596482       5.60834749      11.98926782  T       0.00000000       0.00000000       0.00000000
H       11.98681230       4.50359009      12.74328043  T       0.00000000       0.00000000       0.00000000
