117
Lattice="12.303473692417112 0.0 0.0 0.0 12.303473692417114 0.0 0.0 0.0 29.165420746594243" Properties=species:S:1:pos:R:3:move_mask:L:1:momenta:R:3 adsorbate_info="_JSON {\"site\": {\"coordinates\": [0.8278537257592272, 4.4249780215420484, 9.713000844164783], \"connectivity\": 3, \"topology\": [87, 103, 105], \"n_vector\": [-0.04950287843786634, 0.02547449084723066, 0.9984490549559554], \"h_vector\": [-0.9994812825948264, -0.0173490202763374, -0.027132586276507456], \"site_formula\": {\"Pd\": 3}}, \"smiles\": \"ClOC\", \"mdf\": 2.2836250710857695, \"adsorbate_formula\": \"CH3O\"}" mace_E=-585.5694581738445 converged=T n_steps=44 d_min=2.2845382919357 site_type=unknown dE_rel_meV=0 original_idx=28 rank=495 E_MACE=-584.2648295156106 pbc="T T T"
O        8.43787041      11.57213318       9.32539607  T       0.00000000       0.00000000       0.00000000
O       11.49792326       5.38417600       9.36306097  T       0.00000000       0.00000000       0.00000000
O       11.48355773       1.57714078      10.59081577  T       0.00000000       0.00000000       0.00000000
O       11.48512013      11.52484013       9.36954939  T       0.00000000       0.00000000       0.00000000
O        8.43980763       7.81739408      10.54333819  T       0.00000000       0.00000000       0.00000000
O        5.33119385      11.52672353       9.37130866  T       0.00000000       0.00000000       0.00000000
O        5.40355797       7.78723865      10.57900144  T       0.00000000       0.00000000       0.00000000
O        8.47124505       5.43051596       9.36190692  T       0.00000000       0.00000000       0.00000000
O       11.55289936       7.78719732      10.56317785  T       0.00000000       0.00000000       0.00000000
O        2.33521314       5.43927219       9.34974202  T       0.00000000       0.00000000       0.00000000
O        2.28794107       1.64941925      10.52752496  T       0.00000000       0.00000000       0.00000000
O        2.29540424      11.58719404       9.34156169  T       0.00000000       0.00000000       0.00000000
O        5.34911085       5.38716930       9.38073850  T       0.00000000       0.00000000       0.00000000
O        5.37226216       1.62792080      10.56842773  T       0.00000000       0.00000000       0.00000000
O        2.29680061       7.82681434      10.53580611  T       0.00000000       0.00000000       0.00000000
O        8.41836392       1.65352144      10.51994589  T       0.00000000       0.00000000       0.00000000
Pd       5.53656316       9.22760527       1.50000000  F       0.00000000       0.00000000       0.00000000
Pd       6.11805245       7.45318193       7.39155538  T       0.00000000       0.00000000       0.00000000
Pd       4.28815433       6.78245218       5.40241719  F       0.00000000       0.00000000       0.00000000
Pd       6.15173685       7.38208422       3.44535000  F       0.00000000       0.00000000       0.00000000
Pd       7.34749494       3.64177008       7.35443403  T       0.00000000       0.00000000       0.00000000
Pd       5.51948843       3.08419342       5.37702261  F       0.00000000       0.00000000       0.00000000
Pd       6.76691053       5.53656316       1.50000000  F       0.00000000       0.00000000       0.00000000
Pd       7.38208422       9.84277895       3.44535000  F       0.00000000       0.00000000       0.00000000
Pd       7.99725790       7.99725790       1.50000000  F       0.00000000       0.00000000       0.00000000
Pd       5.51951598       9.23590192       5.37700272  F       0.00000000       0.00000000       0.00000000
Pd       8.00616182       7.98477587       5.40628129  F       0.00000000       0.00000000       0.00000000
Pd       6.76691053      11.68830001       1.50000000  F       0.00000000       0.00000000       0.00000000
Pd       8.61243158       0.00000000       3.44535000  F       0.00000000       0.00000000       0.00000000
Pd       6.75606179      11.70364973       5.37992114  F       0.00000000       0.00000000       0.00000000
Pd       8.55420704       0.00760958       7.39301661  T       0.00000000       0.00000000       0.00000000
Pd       9.84277895       8.61243158       3.44535000  F       0.00000000       0.00000000       0.00000000
Pd       7.38208422       3.69104211       3.44535000  F       0.00000000       0.00000000       0.00000000
Pd       3.69104211       8.61243158       3.44535000  F       0.00000000       0.00000000       0.00000000
Pd       9.80599640       8.61134555       7.49673786  T       0.00000000       0.00000000       0.00000000
Pd       9.22760527      10.45795264       1.50000000  F       0.00000000       0.00000000       0.00000000
Pd       7.32457215       9.80874890       7.34568256  T       0.00000000       0.00000000       0.00000000
Pd       1.84552105       7.99725790       1.50000000  F       0.00000000       0.00000000       0.00000000
Pd      11.68830001       9.22760527       1.50000000  F       0.00000000       0.00000000       0.00000000
Pd       0.60431863      11.70356305       5.37989931  F       0.00000000       0.00000000       0.00000000
Pd       8.61243158       6.15173685       3.44535000  F       0.00000000       0.00000000       0.00000000
Pd       6.75605293       5.55187564       5.37990856  F       0.00000000       0.00000000       0.00000000
Pd       8.56149649       6.12528714       7.40938075  T       0.00000000       0.00000000       0.00000000
Pd       7.99725790       1.84552105       1.50000000  F       0.00000000       0.00000000       0.00000000
Pd       9.84277895       2.46069474       3.44535000  F       0.00000000       0.00000000       0.00000000
Pd       8.00617313       1.83308050       5.40627808  F       0.00000000       0.00000000       0.00000000
Pd       9.85828468       2.48430791       7.53810562  T       0.00000000       0.00000000       0.00000000
Pd       9.22760527       4.30621579       1.50000000  F       0.00000000       0.00000000       0.00000000
Pd       4.92138948       4.92138948       3.44535000  F       0.00000000       0.00000000       0.00000000
Pd       9.22722207       4.29761474       5.41287912  F       0.00000000       0.00000000       0.00000000
Pd       4.94391481       4.95644213       7.39805883  T       0.00000000       0.00000000       0.00000000
Pd      10.45795264       6.76691053       1.50000000  F       0.00000000       0.00000000       0.00000000
Pd       0.00000000       7.38208422       3.44535000  F       0.00000000       0.00000000       0.00000000
Pd      10.43991375       6.78245558       5.40242713  F       0.00000000       0.00000000       0.00000000
Pd      12.25398259       7.44931169       7.38869798  T       0.00000000       0.00000000       0.00000000
Pd       4.92138948      11.07312632       3.44535000  F       0.00000000       0.00000000       0.00000000
Pd       1.23034737       9.84277895       3.44535000  F       0.00000000       0.00000000       0.00000000
Pd      11.67120661       9.23591801       5.37701028  F       0.00000000       0.00000000       0.00000000
Pd       1.17923788       9.80024705       7.34873624  T       0.00000000       0.00000000       0.00000000
Pd       0.61517368      11.68830001       1.50000000  F       0.00000000       0.00000000       0.00000000
Pd       2.46069474       0.00000000       3.44535000  F       0.00000000       0.00000000       0.00000000
Pd       2.40442458      -0.01041893       7.39895704  T       0.00000000       0.00000000       0.00000000
Pd       9.22719689      10.44932842       5.41286416  F       0.00000000       0.00000000       0.00000000
Pd       3.67082600       8.61373177       7.49872752  T       0.00000000       0.00000000       0.00000000
Pd       4.30621579       0.61517368       1.50000000  F       0.00000000       0.00000000       0.00000000
Pd      11.07312632       4.92138948       3.44535000  F       0.00000000       0.00000000       0.00000000
Pd       4.30621579       6.76691053       1.50000000  F       0.00000000       0.00000000       0.00000000
Pd       3.64943482       2.47624585       7.51600912  T       0.00000000       0.00000000       0.00000000
Pd       2.41108678       6.13427509       7.40583640  T       0.00000000       0.00000000       0.00000000
Pd       0.60433818       5.55187436       5.37993065  F       0.00000000       0.00000000       0.00000000
Pd       2.46069474       6.15173685       3.44535000  F       0.00000000       0.00000000       0.00000000
Pd       0.61517368       5.53656316       1.50000000  F       0.00000000       0.00000000       0.00000000
Pd       1.17357236       3.65518656       7.36375269  T       0.00000000       0.00000000       0.00000000
Pd      11.67123156       3.08419612       5.37703229  F       0.00000000       0.00000000       0.00000000
Pd       6.91197536       6.64177107       9.92053367  T       0.00000000       0.00000000       0.00000000
Pd       1.23034737       3.69104211       3.44535000  F       0.00000000       0.00000000       0.00000000
Pd      12.27314983       1.29827065       7.38255933  T       0.00000000       0.00000000       0.00000000
Pd      10.43990395       0.63072067       5.40242717  F       0.00000000       0.00000000       0.00000000
Pd       0.00000000       1.23034737       3.44535000  F       0.00000000       0.00000000       0.00000000
Pd       1.84552105       1.84552105       1.50000000  F       0.00000000       0.00000000       0.00000000
Pd      10.45795264       0.61517368       1.50000000  F       0.00000000       0.00000000       0.00000000
Pd      11.07548605      11.11030791       7.39126646  T       0.00000000       0.00000000       0.00000000
Pd       3.07550809      10.44932540       5.41290581  F       0.00000000       0.00000000       0.00000000
Pd       3.69104211       2.46069474       3.44535000  F       0.00000000       0.00000000       0.00000000
Pd       1.85442396       1.83305046       5.40626716  F       0.00000000       0.00000000       0.00000000
Pd      11.68830001       3.07586842       1.50000000  F       0.00000000       0.00000000       0.00000000
Pd       0.72985188       0.49686777       9.90760770  T       0.00000000       0.00000000       0.00000000
Pd       2.35032978       3.45779625       9.78636914  T       0.00000000       0.00000000       0.00000000
Pd       3.85672549       6.68661894       9.91853272  T       0.00000000       0.00000000       0.00000000
Pd       6.15173685       1.23034737       3.44535000  F       0.00000000       0.00000000       0.00000000
Pd       4.28818081       0.63072761       5.40241929  F       0.00000000       0.00000000       0.00000000
Pd       6.09676926       1.31000981       7.38458825  T       0.00000000       0.00000000       0.00000000
Pd       5.53656316       3.07586842       1.50000000  F       0.00000000       0.00000000       0.00000000
Pd       1.85444455       7.98478761       5.40627529  F       0.00000000       0.00000000       0.00000000
Pd       5.36515701       3.37259806       9.68967651  T       0.00000000       0.00000000       0.00000000
Pd       3.07586842      10.45795264       1.50000000  F       0.00000000       0.00000000       0.00000000
Pd       3.07586842       4.30621579       1.50000000  F       0.00000000       0.00000000       0.00000000
Pd       3.07547731       4.29761827       5.41291946  F       0.00000000       0.00000000       0.00000000
Pd      11.08642065       4.94865589       7.41157538  T       0.00000000       0.00000000       0.00000000
Pd      11.07312632      11.07312632       3.44535000  F       0.00000000       0.00000000       0.00000000
Pd       9.97226001       0.51148308       9.88778486  T       0.00000000       0.00000000       0.00000000
Pd       6.88439577       0.48717436       9.89876045  T       0.00000000       0.00000000       0.00000000
Pd       8.46302231       9.59800213       9.74965411  T       0.00000000       0.00000000       0.00000000
Pd       0.76859764       6.65083434       9.90280550  T       0.00000000       0.00000000       0.00000000
Pd       5.38903930       9.51685782       9.67617609  T       0.00000000       0.00000000       0.00000000
Pd      11.51654507       3.40078803       9.84235235  T       0.00000000       0.00000000       0.00000000
Pd       8.47946526       3.45160592       9.76689149  T       0.00000000       0.00000000       0.00000000
Pd      10.00250275       6.68112092       9.91532929  T       0.00000000       0.00000000       0.00000000
Pd       3.82999704       0.52017269       9.90396478  T       0.00000000       0.00000000       0.00000000
Pd       2.32571665       9.61109965       9.75223573  T       0.00000000       0.00000000       0.00000000
Pd       4.92329751      11.11217801       7.39166848  T       0.00000000       0.00000000       0.00000000
Pd      11.54115406       9.51081515       9.65782201  T       0.00000000       0.00000000       0.00000000
O        0.33124514       3.76030476      11.51161618  T       0.00000000       0.00000000       0.00000000
C       -0.09951878       4.73685486      12.43579627  T       0.00000000       0.00000000       0.00000000
H        0.27925070       4.42998275      13.43278991  T       0.00000000       0.00000000       0.00000000
H        0.31226453       5.75246972      12.21075957  T       0.00000000       0.00000000       0.00000000
H       -1.20429574       4.82724597      12.49714653  T       0.00000000       0.00000000       0.00000000
