117
Lattice="12.303473692417112 0.0 0.0 0.0 12.303473692417114 0.0 0.0 0.0 29.165420746594243" Properties=species:S:1:pos:R:3:move_mask:L:1:momenta:R:3 adsorbate_info="_JSON {\"site\": {\"coordinates\": [0.041065268323742576, 5.931894020339093, 9.568206000477394], \"connectivity\": 2, \"topology\": [1, 103], \"n_vector\": [0.01958411461889365, -0.26656103906330314, 0.9636190507187403], \"h_vector\": [0.7568816777977904, 0.6004306723785156, 0.2580952023596832], \"site_formula\": {\"O\": 1, \"Pd\": 1}}, \"smiles\": \"ClOC\", \"mdf\": 1.7115393775536805, \"adsorbate_formula\": \"CH3O\"}" mace_E=-585.4010069932121 converged=T n_steps=59 d_min=2.128178461915641 site_type=unknown dE_rel_meV=0 original_idx=2 rank=9 E_MACE=-585.8916409388396 pbc="T T T"
O        8.43485437      11.58316704       9.35115722  T       0.00000000       0.00000000       0.00000000
O       11.43993896       5.39661212       9.35166391  T       0.00000000       0.00000000       0.00000000
O       11.50688973       1.63017210      10.57274003  T       0.00000000       0.00000000       0.00000000
O       11.47493798      11.52635973       9.38465546  T       0.00000000       0.00000000       0.00000000
O        8.37907114       7.81970996      10.53612945  T       0.00000000       0.00000000       0.00000000
O        5.31352030      11.54634227       9.37568684  T       0.00000000       0.00000000       0.00000000
O        5.34709653       7.79359569      10.57038865  T       0.00000000       0.00000000       0.00000000
O        8.41951731       5.43172029       9.34931366  T       0.00000000       0.00000000       0.00000000
O       11.47428457       7.78973261      10.60076960  T       0.00000000       0.00000000       0.00000000
O        2.27299920       5.45568052       9.33063586  T       0.00000000       0.00000000       0.00000000
O        2.25361228       1.67873423      10.53274615  T       0.00000000       0.00000000       0.00000000
O        2.28207913      11.59105205       9.34986748  T       0.00000000       0.00000000       0.00000000
O        5.29274221       5.39263453       9.37773073  T       0.00000000       0.00000000       0.00000000
O        5.36280898       1.64255891      10.56563433  T       0.00000000       0.00000000       0.00000000
O        2.27071015       7.84628381      10.56248580  T       0.00000000       0.00000000       0.00000000
O        8.41482883       1.66340188      10.53919517  T       0.00000000       0.00000000       0.00000000
Pd       5.53656316       9.22760527       1.50000000  F       0.00000000       0.00000000       0.00000000
Pd       6.10289435       7.45634613       7.39138015  T       0.00000000       0.00000000       0.00000000
Pd       4.28815433       6.78245218       5.40241719  F       0.00000000       0.00000000       0.00000000
Pd       6.15173685       7.38208422       3.44535000  F       0.00000000       0.00000000       0.00000000
Pd       7.32014793       3.65579261       7.35104588  T       0.00000000       0.00000000       0.00000000
Pd       5.51948843       3.08419342       5.37702261  F       0.00000000       0.00000000       0.00000000
Pd       6.76691053       5.53656316       1.50000000  F       0.00000000       0.00000000       0.00000000
Pd       7.38208422       9.84277895       3.44535000  F       0.00000000       0.00000000       0.00000000
Pd       7.99725790       7.99725790       1.50000000  F       0.00000000       0.00000000       0.00000000
Pd       5.51951598       9.23590192       5.37700272  F       0.00000000       0.00000000       0.00000000
Pd       8.00616182       7.98477587       5.40628129  F       0.00000000       0.00000000       0.00000000
Pd       6.76691053      11.68830001       1.50000000  F       0.00000000       0.00000000       0.00000000
Pd       8.61243158       0.00000000       3.44535000  F       0.00000000       0.00000000       0.00000000
Pd       6.75606179      11.70364973       5.37992114  F       0.00000000       0.00000000       0.00000000
Pd       8.54384550      -0.00911509       7.40659606  T       0.00000000       0.00000000       0.00000000
Pd       9.84277895       8.61243158       3.44535000  F       0.00000000       0.00000000       0.00000000
Pd       7.38208422       3.69104211       3.44535000  F       0.00000000       0.00000000       0.00000000
Pd       3.69104211       8.61243158       3.44535000  F       0.00000000       0.00000000       0.00000000
Pd       9.81326672       8.61833633       7.49574238  T       0.00000000       0.00000000       0.00000000
Pd       9.22760527      10.45795264       1.50000000  F       0.00000000       0.00000000       0.00000000
Pd       7.32200299       9.80550205       7.34970366  T       0.00000000       0.00000000       0.00000000
Pd       1.84552105       7.99725790       1.50000000  F       0.00000000       0.00000000       0.00000000
Pd      11.68830001       9.22760527       1.50000000  F       0.00000000       0.00000000       0.00000000
Pd       0.60431863      11.70356305       5.37989931  F       0.00000000       0.00000000       0.00000000
Pd       8.61243158       6.15173685       3.44535000  F       0.00000000       0.00000000       0.00000000
Pd       6.75605293       5.55187564       5.37990856  F       0.00000000       0.00000000       0.00000000
Pd       8.54510046       6.14024385       7.40329781  T       0.00000000       0.00000000       0.00000000
Pd       7.99725790       1.84552105       1.50000000  F       0.00000000       0.00000000       0.00000000
Pd       9.84277895       2.46069474       3.44535000  F       0.00000000       0.00000000       0.00000000
Pd       8.00617313       1.83308050       5.40627808  F       0.00000000       0.00000000       0.00000000
Pd       9.80596357       2.46838455       7.50160858  T       0.00000000       0.00000000       0.00000000
Pd       9.22760527       4.30621579       1.50000000  F       0.00000000       0.00000000       0.00000000
Pd       4.92138948       4.92138948       3.44535000  F       0.00000000       0.00000000       0.00000000
Pd       9.22722207       4.29761474       5.41287912  F       0.00000000       0.00000000       0.00000000
Pd       4.91041438       4.96342575       7.39618754  T       0.00000000       0.00000000       0.00000000
Pd      10.45795264       6.76691053       1.50000000  F       0.00000000       0.00000000       0.00000000
Pd       0.00000000       7.38208422       3.44535000  F       0.00000000       0.00000000       0.00000000
Pd      10.43991375       6.78245558       5.40242713  F       0.00000000       0.00000000       0.00000000
Pd      12.27702034       7.45296834       7.46436070  T       0.00000000       0.00000000       0.00000000
Pd       4.92138948      11.07312632       3.44535000  F       0.00000000       0.00000000       0.00000000
Pd       1.23034737       9.84277895       3.44535000  F       0.00000000       0.00000000       0.00000000
Pd      11.67120661       9.23591801       5.37701028  F       0.00000000       0.00000000       0.00000000
Pd       1.17675064       9.81129337       7.33853070  T       0.00000000       0.00000000       0.00000000
Pd       0.61517368      11.68830001       1.50000000  F       0.00000000       0.00000000       0.00000000
Pd       2.46069474       0.00000000       3.44535000  F       0.00000000       0.00000000       0.00000000
Pd       2.39616974      -0.00374800       7.40512561  T       0.00000000       0.00000000       0.00000000
Pd       9.22719689      10.44932842       5.41286416  F       0.00000000       0.00000000       0.00000000
Pd       3.65781393       8.62027829       7.50013477  T       0.00000000       0.00000000       0.00000000
Pd       4.30621579       0.61517368       1.50000000  F       0.00000000       0.00000000       0.00000000
Pd      11.07312632       4.92138948       3.44535000  F       0.00000000       0.00000000       0.00000000
Pd       4.30621579       6.76691053       1.50000000  F       0.00000000       0.00000000       0.00000000
Pd       3.65309266       2.46841950       7.51125794  T       0.00000000       0.00000000       0.00000000
Pd       2.38787864       6.14529928       7.40701162  T       0.00000000       0.00000000       0.00000000
Pd       0.60433818       5.55187436       5.37993065  F       0.00000000       0.00000000       0.00000000
Pd       2.46069474       6.15173685       3.44535000  F       0.00000000       0.00000000       0.00000000
Pd       0.61517368       5.53656316       1.50000000  F       0.00000000       0.00000000       0.00000000
Pd       1.17031423       3.65439771       7.35278898  T       0.00000000       0.00000000       0.00000000
Pd      11.67123156       3.08419612       5.37703229  F       0.00000000       0.00000000       0.00000000
Pd       6.85401849       6.64393592       9.91545693  T       0.00000000       0.00000000       0.00000000
Pd       1.23034737       3.69104211       3.44535000  F       0.00000000       0.00000000       0.00000000
Pd      12.25159053       1.30916402       7.39196299  T       0.00000000       0.00000000       0.00000000
Pd      10.43990395       0.63072067       5.40242717  F       0.00000000       0.00000000       0.00000000
Pd       0.00000000       1.23034737       3.44535000  F       0.00000000       0.00000000       0.00000000
Pd       1.84552105       1.84552105       1.50000000  F       0.00000000       0.00000000       0.00000000
Pd      10.45795264       0.61517368       1.50000000  F       0.00000000       0.00000000       0.00000000
Pd      11.07230729      11.12090962       7.40085851  T       0.00000000       0.00000000       0.00000000
Pd       3.07550809      10.44932540       5.41290581  F       0.00000000       0.00000000       0.00000000
Pd       3.69104211       2.46069474       3.44535000  F       0.00000000       0.00000000       0.00000000
Pd       1.85442396       1.83305046       5.40626716  F       0.00000000       0.00000000       0.00000000
Pd      11.68830001       3.07586842       1.50000000  F       0.00000000       0.00000000       0.00000000
Pd       0.72368532       0.49814291       9.91257776  T       0.00000000       0.00000000       0.00000000
Pd       2.28544227       3.47491693       9.76876297  T       0.00000000       0.00000000       0.00000000
Pd       3.79621882       6.68704816       9.92843382  T       0.00000000       0.00000000       0.00000000
Pd       6.15173685       1.23034737       3.44535000  F       0.00000000       0.00000000       0.00000000
Pd       4.28818081       0.63072761       5.40241929  F       0.00000000       0.00000000       0.00000000
Pd       6.10130489       1.30845165       7.38966842  T       0.00000000       0.00000000       0.00000000
Pd       5.53656316       3.07586842       1.50000000  F       0.00000000       0.00000000       0.00000000
Pd       1.85444455       7.98478761       5.40627529  F       0.00000000       0.00000000       0.00000000
Pd       5.34847426       3.38065394       9.67913116  T       0.00000000       0.00000000       0.00000000
Pd       3.07586842      10.45795264       1.50000000  F       0.00000000       0.00000000       0.00000000
Pd       3.07586842       4.30621579       1.50000000  F       0.00000000       0.00000000       0.00000000
Pd       3.07547731       4.29761827       5.41291946  F       0.00000000       0.00000000       0.00000000
Pd      11.06996218       4.96217256       7.38257793  T       0.00000000       0.00000000       0.00000000
Pd      11.07312632      11.07312632       3.44535000  F       0.00000000       0.00000000       0.00000000
Pd       9.96902020       0.52025932       9.91589871  T       0.00000000       0.00000000       0.00000000
Pd       6.87761102       0.49861847       9.91114455  T       0.00000000       0.00000000       0.00000000
Pd       8.43221168       9.60405330       9.75694724  T       0.00000000       0.00000000       0.00000000
Pd       0.70731719       6.63091886      10.00134941  T       0.00000000       0.00000000       0.00000000
Pd       5.34640533       9.52978890       9.67910963  T       0.00000000       0.00000000       0.00000000
Pd      11.48415284       3.37519376       9.68331480  T       0.00000000       0.00000000       0.00000000
Pd       8.45251703       3.45230696       9.76416020  T       0.00000000       0.00000000       0.00000000
Pd       9.93907016       6.68524321       9.91295098  T       0.00000000       0.00000000       0.00000000
Pd       3.81399906       0.53961607       9.91014045  T       0.00000000       0.00000000       0.00000000
Pd       2.28952251       9.60900328       9.75601288  T       0.00000000       0.00000000       0.00000000
Pd       4.92059611      11.11720030       7.39373327  T       0.00000000       0.00000000       0.00000000
Pd      11.52278349       9.49882001       9.66227914  T       0.00000000       0.00000000       0.00000000
O        0.94623525       5.67258056      11.80610279  T       0.00000000       0.00000000       0.00000000
C       -0.17660432       5.11737274      12.42431383  T       0.00000000       0.00000000       0.00000000
H        0.18044070       4.70964686      13.39331314  T       0.00000000       0.00000000       0.00000000
H       -0.99701139       5.84293341      12.61439731  T       0.00000000       0.00000000       0.00000000
H       -0.61464309       4.24824946      11.85029655  T       0.00000000       0.00000000       0.00000000
