117
Lattice="12.303473692417112 0.0 0.0 0.0 12.303473692417114 0.0 0.0 0.0 29.165420746594243" Properties=species:S:1:pos:R:3:move_mask:L:1:momenta:R:3 adsorbate_info="_JSON {\"site\": {\"coordinates\": [2.365679196135986, 8.638996701971351, 10.055922640657903], \"connectivity\": 2, \"topology\": [14, 109], \"n_vector\": [0.0026522449939156965, 0.31704388273715284, 0.9484071604619203], \"h_vector\": [-0.013300288371235872, -0.9283292291391079, 0.37152112275782107], \"site_formula\": {\"O\": 1, \"Pd\": 1}}, \"smiles\": \"ClOC\", \"mdf\": 1.9666155921194413, \"adsorbate_formula\": \"CH3O\"}" mace_E=-585.6487680844282 converged=T n_steps=65 d_min=2.337354831589584 site_type=unknown dE_rel_meV=0 original_idx=94 rank=494 E_MACE=-584.265055117073 pbc="T T T"
O        8.44854017      11.56520976       9.35889369  T       0.00000000       0.00000000       0.00000000
O       11.46791925       5.37711445       9.37225162  T       0.00000000       0.00000000       0.00000000
O       11.52176180       1.62358671      10.56488893  T       0.00000000       0.00000000       0.00000000
O       11.47901313      11.51732063       9.37899720  T       0.00000000       0.00000000       0.00000000
O        8.41598388       7.80564167      10.56503902  T       0.00000000       0.00000000       0.00000000
O        5.32225914      11.51804381       9.38721241  T       0.00000000       0.00000000       0.00000000
O        5.36744037       7.76955998      10.59186365  T       0.00000000       0.00000000       0.00000000
O        8.44144473       5.42746674       9.35557752  T       0.00000000       0.00000000       0.00000000
O       11.51886243       7.76681728      10.58026333  T       0.00000000       0.00000000       0.00000000
O        2.29333290       5.41958980       9.34180660  T       0.00000000       0.00000000       0.00000000
O        2.26355594       1.65689569      10.52216681  T       0.00000000       0.00000000       0.00000000
O        2.29071054      11.58834473       9.29662038  T       0.00000000       0.00000000       0.00000000
O        5.33603833       5.37858228       9.37006189  T       0.00000000       0.00000000       0.00000000
O        5.37137714       1.62418597      10.55880566  T       0.00000000       0.00000000       0.00000000
O        2.27083857       7.77338644      10.55497995  T       0.00000000       0.00000000       0.00000000
O        8.41788600       1.65660909      10.52307933  T       0.00000000       0.00000000       0.00000000
Pd       5.53656316       9.22760527       1.50000000  F       0.00000000       0.00000000       0.00000000
Pd       6.09380001       7.46128305       7.39456733  T       0.00000000       0.00000000       0.00000000
Pd       4.28815433       6.78245218       5.40241719  F       0.00000000       0.00000000       0.00000000
Pd       6.15173685       7.38208422       3.44535000  F       0.00000000       0.00000000       0.00000000
Pd       7.32971352       3.65258375       7.34456274  T       0.00000000       0.00000000       0.00000000
Pd       5.51948843       3.08419342       5.37702261  F       0.00000000       0.00000000       0.00000000
Pd       6.76691053       5.53656316       1.50000000  F       0.00000000       0.00000000       0.00000000
Pd       7.38208422       9.84277895       3.44535000  F       0.00000000       0.00000000       0.00000000
Pd       7.99725790       7.99725790       1.50000000  F       0.00000000       0.00000000       0.00000000
Pd       5.51951598       9.23590192       5.37700272  F       0.00000000       0.00000000       0.00000000
Pd       8.00616182       7.98477587       5.40628129  F       0.00000000       0.00000000       0.00000000
Pd       6.76691053      11.68830001       1.50000000  F       0.00000000       0.00000000       0.00000000
Pd       8.61243158       0.00000000       3.44535000  F       0.00000000       0.00000000       0.00000000
Pd       6.75606179      11.70364973       5.37992114  F       0.00000000       0.00000000       0.00000000
Pd       8.55289101      -0.01958183       7.40959665  T       0.00000000       0.00000000       0.00000000
Pd       9.84277895       8.61243158       3.44535000  F       0.00000000       0.00000000       0.00000000
Pd       7.38208422       3.69104211       3.44535000  F       0.00000000       0.00000000       0.00000000
Pd       3.69104211       8.61243158       3.44535000  F       0.00000000       0.00000000       0.00000000
Pd       9.81419501       8.61701309       7.50689216  T       0.00000000       0.00000000       0.00000000
Pd       9.22760527      10.45795264       1.50000000  F       0.00000000       0.00000000       0.00000000
Pd       7.32992308       9.79805586       7.35637173  T       0.00000000       0.00000000       0.00000000
Pd       1.84552105       7.99725790       1.50000000  F       0.00000000       0.00000000       0.00000000
Pd      11.68830001       9.22760527       1.50000000  F       0.00000000       0.00000000       0.00000000
Pd       0.60431863      11.70356305       5.37989931  F       0.00000000       0.00000000       0.00000000
Pd       8.61243158       6.15173685       3.44535000  F       0.00000000       0.00000000       0.00000000
Pd       6.75605293       5.55187564       5.37990856  F       0.00000000       0.00000000       0.00000000
Pd       8.54511754       6.14539066       7.41020187  T       0.00000000       0.00000000       0.00000000
Pd       7.99725790       1.84552105       1.50000000  F       0.00000000       0.00000000       0.00000000
Pd       9.84277895       2.46069474       3.44535000  F       0.00000000       0.00000000       0.00000000
Pd       8.00617313       1.83308050       5.40627808  F       0.00000000       0.00000000       0.00000000
Pd       9.81126001       2.45782739       7.49612169  T       0.00000000       0.00000000       0.00000000
Pd       9.22760527       4.30621579       1.50000000  F       0.00000000       0.00000000       0.00000000
Pd       4.92138948       4.92138948       3.44535000  F       0.00000000       0.00000000       0.00000000
Pd       9.22722207       4.29761474       5.41287912  F       0.00000000       0.00000000       0.00000000
Pd       4.92963978       4.95925668       7.38950213  T       0.00000000       0.00000000       0.00000000
Pd      10.45795264       6.76691053       1.50000000  F       0.00000000       0.00000000       0.00000000
Pd       0.00000000       7.38208422       3.44535000  F       0.00000000       0.00000000       0.00000000
Pd      10.43991375       6.78245558       5.40242713  F       0.00000000       0.00000000       0.00000000
Pd      12.25891481       7.45782495       7.38623175  T       0.00000000       0.00000000       0.00000000
Pd       4.92138948      11.07312632       3.44535000  F       0.00000000       0.00000000       0.00000000
Pd       1.23034737       9.84277895       3.44535000  F       0.00000000       0.00000000       0.00000000
Pd      11.67120661       9.23591801       5.37701028  F       0.00000000       0.00000000       0.00000000
Pd       1.18563981       9.80754361       7.36978913  T       0.00000000       0.00000000       0.00000000
Pd       0.61517368      11.68830001       1.50000000  F       0.00000000       0.00000000       0.00000000
Pd       2.46069474       0.00000000       3.44535000  F       0.00000000       0.00000000       0.00000000
Pd       2.41138967      -0.00759336       7.37944626  T       0.00000000       0.00000000       0.00000000
Pd       9.22719689      10.44932842       5.41286416  F       0.00000000       0.00000000       0.00000000
Pd       3.63985428       8.63025106       7.53578261  T       0.00000000       0.00000000       0.00000000
Pd       4.30621579       0.61517368       1.50000000  F       0.00000000       0.00000000       0.00000000
Pd      11.07312632       4.92138948       3.44535000  F       0.00000000       0.00000000       0.00000000
Pd       4.30621579       6.76691053       1.50000000  F       0.00000000       0.00000000       0.00000000
Pd       3.66338545       2.46532487       7.50449749  T       0.00000000       0.00000000       0.00000000
Pd       2.40320868       6.14056590       7.40286377  T       0.00000000       0.00000000       0.00000000
Pd       0.60433818       5.55187436       5.37993065  F       0.00000000       0.00000000       0.00000000
Pd       2.46069474       6.15173685       3.44535000  F       0.00000000       0.00000000       0.00000000
Pd       0.61517368       5.53656316       1.50000000  F       0.00000000       0.00000000       0.00000000
Pd       1.17287707       3.64959388       7.34705051  T       0.00000000       0.00000000       0.00000000
Pd      11.67123156       3.08419612       5.37703229  F       0.00000000       0.00000000       0.00000000
Pd       6.88569805       6.63701391       9.92238862  T       0.00000000       0.00000000       0.00000000
Pd       1.23034737       3.69104211       3.44535000  F       0.00000000       0.00000000       0.00000000
Pd      12.26145475       1.30006724       7.39465283  T       0.00000000       0.00000000       0.00000000
Pd      10.43990395       0.63072067       5.40242717  F       0.00000000       0.00000000       0.00000000
Pd       0.00000000       1.23034737       3.44535000  F       0.00000000       0.00000000       0.00000000
Pd       1.84552105       1.84552105       1.50000000  F       0.00000000       0.00000000       0.00000000
Pd      10.45795264       0.61517368       1.50000000  F       0.00000000       0.00000000       0.00000000
Pd      11.08209970      11.11135002       7.39265663  T       0.00000000       0.00000000       0.00000000
Pd       3.07550809      10.44932540       5.41290581  F       0.00000000       0.00000000       0.00000000
Pd       3.69104211       2.46069474       3.44535000  F       0.00000000       0.00000000       0.00000000
Pd       1.85442396       1.83305046       5.40626716  F       0.00000000       0.00000000       0.00000000
Pd      11.68830001       3.07586842       1.50000000  F       0.00000000       0.00000000       0.00000000
Pd       0.73592317       0.47581182       9.91788594  T       0.00000000       0.00000000       0.00000000
Pd       2.29938977       3.44210700       9.75125343  T       0.00000000       0.00000000       0.00000000
Pd       3.83158965       6.66690477       9.90836083  T       0.00000000       0.00000000       0.00000000
Pd       6.15173685       1.23034737       3.44535000  F       0.00000000       0.00000000       0.00000000
Pd       4.28818081       0.63072761       5.40241929  F       0.00000000       0.00000000       0.00000000
Pd       6.10996002       1.30069070       7.38647916  T       0.00000000       0.00000000       0.00000000
Pd       5.53656316       3.07586842       1.50000000  F       0.00000000       0.00000000       0.00000000
Pd       1.85444455       7.98478761       5.40627529  F       0.00000000       0.00000000       0.00000000
Pd       5.37625811       3.35811201       9.66338188  T       0.00000000       0.00000000       0.00000000
Pd       3.07586842      10.45795264       1.50000000  F       0.00000000       0.00000000       0.00000000
Pd       3.07586842       4.30621579       1.50000000  F       0.00000000       0.00000000       0.00000000
Pd       3.07547731       4.29761827       5.41291946  F       0.00000000       0.00000000       0.00000000
Pd      11.06786778       4.95974468       7.39210073  T       0.00000000       0.00000000       0.00000000
Pd      11.07312632      11.07312632       3.44535000  F       0.00000000       0.00000000       0.00000000
Pd       9.97912379       0.51424658       9.90971689  T       0.00000000       0.00000000       0.00000000
Pd       6.88553890       0.47746608       9.90779813  T       0.00000000       0.00000000       0.00000000
Pd       8.45724824       9.58861022       9.77435063  T       0.00000000       0.00000000       0.00000000
Pd       0.73069037       6.62858388       9.90834381  T       0.00000000       0.00000000       0.00000000
Pd       5.36877133       9.50876337       9.70607547  T       0.00000000       0.00000000       0.00000000
Pd      11.52005973       3.35757196       9.66954678  T       0.00000000       0.00000000       0.00000000
Pd       8.45572105       3.44564537       9.75151205  T       0.00000000       0.00000000       0.00000000
Pd       9.97124663       6.66602378       9.92699766  T       0.00000000       0.00000000       0.00000000
Pd       3.82168338       0.51578015       9.90990989  T       0.00000000       0.00000000       0.00000000
Pd       2.29090402       9.60727089       9.84232600  T       0.00000000       0.00000000       0.00000000
Pd       4.93416385      11.10544151       7.39808431  T       0.00000000       0.00000000       0.00000000
Pd      11.50781672       9.50419346       9.68677517  T       0.00000000       0.00000000       0.00000000
O        2.03606342      10.40315135      11.67580754  T       0.00000000       0.00000000       0.00000000
C        1.76400984       9.58723632      12.79896941  T       0.00000000       0.00000000       0.00000000
H        1.68448569      10.28690932      13.65513796  T       0.00000000       0.00000000       0.00000000
H        0.81096307       9.02339563      12.71399125  T       0.00000000       0.00000000       0.00000000
H        2.57461658       8.86054091      13.01198526  T       0.00000000       0.00000000       0.00000000
