130
Lattice="12.21437083684855 0.0 7e-16 1.7e-15 10.811692246786171 7e-16 0.0 0.0 30.687574482242482" Properties=species:S:1:pos:R:3:move_mask:L:1:momenta:R:3 adsorbate_info="_JSON {\"site\": {\"coordinates\": [1.526778921167807, 9.522570895979356, 12.11690737823351], \"connectivity\": 2, \"topology\": [10, 43], \"n_vector\": [0.0004804969352963383, -0.11104426768270018, 0.993815344889335], \"h_vector\": [0.9999999999928605, 2.7941075110017765e-06, 2.5440147539814556e-06], \"site_formula\": {\"O\": 2}}, \"smiles\": \"Cl[C]=O\", \"mdf\": 2.306452414243278, \"adsorbate_formula\": \"CO\"}" mace_E=-687.828866763298 converged=T n_steps=22 d_min=3.0864669877923783 site_type=atop dE_rel_meV=0 original_idx=18 rank=67 E_MACE=-687.8549591995682 pbc="T T T"
O        3.05336772       6.71210048      12.16304436  T       0.00000000       0.00000000       0.00000000
O        6.11423986       1.30732056      12.17341076  T       0.00000000       0.00000000       0.00000000
O        6.10784205       4.10441854      12.16549980  T       0.00000000       0.00000000       0.00000000
O        6.10895538       1.35462349       9.16967675  T       0.00000000       0.00000000       0.00000000
O        6.10702314       4.04857386       9.16877025  T       0.00000000       0.00000000       0.00000000
O        6.10718343       1.35539432       6.10801899  F       0.00000000       0.00000000       0.00000000
O        6.10718534       4.05045008       6.10801162  F       0.00000000       0.00000000       0.00000000
O        6.10718542       1.35146153       3.02679635  F       0.00000000       0.00000000       0.00000000
O        6.10718542       4.05438459       3.02679635  F       0.00000000       0.00000000       0.00000000
O        9.16818062       9.50790830      12.15957889  T       0.00000000       0.00000000       0.00000000
O        3.05939777       9.51169347      12.15378914  T       0.00000000       0.00000000       0.00000000
O        3.05401999       6.75752563       9.16460272  T       0.00000000       0.00000000       0.00000000
O        3.05636105       9.45527282       9.16342378  T       0.00000000       0.00000000       0.00000000
O        3.05359341       6.76124998       6.10801980  F       0.00000000       0.00000000       0.00000000
O        3.05359360       9.45629444       6.10802097  F       0.00000000       0.00000000       0.00000000
O        3.05359271       6.75730765       3.02679635  F       0.00000000       0.00000000       0.00000000
O        3.05359271       9.46023072       3.02679635  F       0.00000000       0.00000000       0.00000000
O        3.06368460       1.31002453      12.17344997  T       0.00000000       0.00000000       0.00000000
O        6.10718542       9.46023072       3.02679635  F       0.00000000       0.00000000       0.00000000
O        6.10718542       6.75730765       3.02679635  F       0.00000000       0.00000000       0.00000000
O        6.10718028       9.45628983       6.10801454  F       0.00000000       0.00000000       0.00000000
O        6.10718760       6.76124043       6.10802244  F       0.00000000       0.00000000       0.00000000
O        9.15957537       6.75772170       9.16614947  T       0.00000000       0.00000000       0.00000000
O        9.16062801       9.45421357       9.16546195  T       0.00000000       0.00000000       0.00000000
O        9.16078073       6.76123572       6.10801818  F       0.00000000       0.00000000       0.00000000
O        9.16078059       9.45627785       6.10801483  F       0.00000000       0.00000000       0.00000000
O        9.16077813       6.75730765       3.02679635  F       0.00000000       0.00000000       0.00000000
O        9.16077813       9.46023072       3.02679635  F       0.00000000       0.00000000       0.00000000
O        9.16327557       1.30844623      12.17574477  T       0.00000000       0.00000000       0.00000000
O        9.16162364       4.10357690      12.17301493  T       0.00000000       0.00000000       0.00000000
O        3.05540145       4.10392412      12.17121030  T       0.00000000       0.00000000       0.00000000
O        9.15887366       1.35506874       9.17154269  T       0.00000000       0.00000000       0.00000000
O        9.16077827       1.35539012       6.10801450  F       0.00000000       0.00000000       0.00000000
O        9.16078421       4.05045012       6.10800209  F       0.00000000       0.00000000       0.00000000
O        9.16077813       1.35146153       3.02679635  F       0.00000000       0.00000000       0.00000000
O        9.16077813       4.05438459       3.02679635  F       0.00000000       0.00000000       0.00000000
O        6.10832064       6.71178918      12.16458563  T       0.00000000       0.00000000       0.00000000
O        6.11241219       9.50893237      12.16345696  T       0.00000000       0.00000000       0.00000000
O        6.10730065       6.76040813       9.16710379  T       0.00000000       0.00000000       0.00000000
O        6.10818726       9.45597240       9.16667278  T       0.00000000       0.00000000       0.00000000
O        9.15733849       4.04685153       9.17070097  T       0.00000000       0.00000000       0.00000000
O        3.05788381       1.35553521       9.17007700  T       0.00000000       0.00000000       0.00000000
O        9.16222696       6.71114921      12.16634620  T       0.00000000       0.00000000       0.00000000
O       12.22364898       9.51285218      12.10652062  T       0.00000000       0.00000000       0.00000000
O        0.00000000       6.75730765       3.02679635  F       0.00000000       0.00000000       0.00000000
O        3.05680168       4.04776438       9.16868315  T       0.00000000       0.00000000       0.00000000
O        0.00599482       1.30743339      12.15075659  T       0.00000000       0.00000000       0.00000000
O        0.00000951       9.45630243       6.10801529  F       0.00000000       0.00000000       0.00000000
O       12.21582015       4.10351975      12.15458769  T       0.00000000       0.00000000       0.00000000
O        0.00000182       6.76124509       6.10800952  F       0.00000000       0.00000000       0.00000000
O        0.00133737       9.46060284       9.14668039  T       0.00000000       0.00000000       0.00000000
O        0.00091616       1.35286312       9.15960906  T       0.00000000       0.00000000       0.00000000
O       -0.00064935       6.75137260       9.14945277  T       0.00000000       0.00000000       0.00000000
O       12.21383758       4.04879188       9.16070922  T       0.00000000       0.00000000       0.00000000
O       12.21659092       6.70940552      12.13263202  T       0.00000000       0.00000000       0.00000000
O        0.00000448       1.35539672       6.10801283  F       0.00000000       0.00000000       0.00000000
O        0.00000331       4.05045002       6.10801189  F       0.00000000       0.00000000       0.00000000
O        3.05359271       4.05438459       3.02679635  F       0.00000000       0.00000000       0.00000000
O        0.00000000       9.46023072       3.02679635  F       0.00000000       0.00000000       0.00000000
O        3.05359105       4.05044320       6.10802763  F       0.00000000       0.00000000       0.00000000
O        3.05359271       1.35146153       3.02679635  F       0.00000000       0.00000000       0.00000000
O        3.05359652       1.35540103       6.10801944  F       0.00000000       0.00000000       0.00000000
O        0.00000000       4.05438459       3.02679635  F       0.00000000       0.00000000       0.00000000
O        0.00000000       1.35146153       3.02679635  F       0.00000000       0.00000000       0.00000000
Pd       7.63495333       5.40766248      12.01788986  T       0.00000000       0.00000000       0.00000000
Pd      10.68739818       5.40640627      12.00745716  T       0.00000000       0.00000000       0.00000000
Pd       0.00000000       8.10876919       1.50000000  F       0.00000000       0.00000000       0.00000000
Pd       9.16343755       8.10598564      10.76027594  T       0.00000000       0.00000000       0.00000000
Pd       1.52679635       0.00000000       3.02679635  F       0.00000000       0.00000000       0.00000000
Pd       9.16077813       2.70292306       1.50000000  F       0.00000000       0.00000000       0.00000000
Pd      10.68757448       0.00000000       3.02679635  F       0.00000000       0.00000000       0.00000000
Pd      10.68475464       5.40026604       9.13620831  T       0.00000000       0.00000000       0.00000000
Pd       1.53705605       0.01039606      11.99888143  T       0.00000000       0.00000000       0.00000000
Pd       9.16077900       2.70292450       4.56559698  F       0.00000000       0.00000000       0.00000000
Pd      10.68756280      10.81168006       6.11657659  F       0.00000000       0.00000000       0.00000000
Pd       9.16077776       8.10875607       4.56559406  F       0.00000000       0.00000000       0.00000000
Pd       1.52678677       0.00000067       6.11658292  F       0.00000000       0.00000000       0.00000000
Pd       9.15960295       8.10673063       7.64780183  T       0.00000000       0.00000000       0.00000000
Pd       9.15771432       2.70157753       7.65080772  T       0.00000000       0.00000000       0.00000000
Pd      10.68611277       0.00055847       9.13141518  T       0.00000000       0.00000000       0.00000000
Pd       0.00000135       2.70292705       4.56560641  F       0.00000000       0.00000000       0.00000000
Pd       1.53046773      10.81258140       9.12967020  T       0.00000000       0.00000000       0.00000000
Pd       9.15824627       2.70369523      10.77068840  T       0.00000000       0.00000000       0.00000000
Pd       6.10868576       8.10931512      10.76224671  T       0.00000000       0.00000000       0.00000000
Pd      10.68984916      10.81940772      11.99836787  T       0.00000000       0.00000000       0.00000000
Pd      -0.00040093       2.70203829       7.64500936  T       0.00000000       0.00000000       0.00000000
Pd      10.68757280       5.40584816       6.11657764  F       0.00000000       0.00000000       0.00000000
Pd       9.16077813       8.10876919       1.50000000  F       0.00000000       0.00000000       0.00000000
Pd      10.68757448       5.40584612       3.02679635  F       0.00000000       0.00000000       0.00000000
Pd      12.21686896       2.70293093      10.75381429  T       0.00000000       0.00000000       0.00000000
Pd       4.58253507      -0.00053124       9.14068747  T       0.00000000       0.00000000       0.00000000
Pd       7.63397856       5.40585179       6.11657833  F       0.00000000       0.00000000       0.00000000
Pd       7.63269952       5.40380223       9.14166706  T       0.00000000       0.00000000       0.00000000
Pd       4.58118314       5.40845837      12.01692160  T       0.00000000       0.00000000       0.00000000
Pd       3.05582889       8.10766250      10.75736256  T       0.00000000       0.00000000       0.00000000
Pd       4.58038906       0.00000000       3.02679635  F       0.00000000       0.00000000       0.00000000
Pd       4.58137767       5.40417062       9.14027717  T       0.00000000       0.00000000       0.00000000
Pd       3.05540879       8.10697199       7.64724645  T       0.00000000       0.00000000       0.00000000
Pd       3.05359494       2.70292824       4.56560681  F       0.00000000       0.00000000       0.00000000
Pd       3.05359271       2.70292306       1.50000000  F       0.00000000       0.00000000       0.00000000
Pd       4.58039501       5.40584640       6.11658908  F       0.00000000       0.00000000       0.00000000
Pd       4.58040505      10.81168838       6.11658203  F       0.00000000       0.00000000       0.00000000
Pd       4.58038906       5.40584612       3.02679635  F       0.00000000       0.00000000       0.00000000
Pd       3.05359271       8.10876919       1.50000000  F       0.00000000       0.00000000       0.00000000
Pd       3.05718205       2.70181544       7.65000816  T       0.00000000       0.00000000       0.00000000
Pd       4.58835926       0.00335141      12.01622232  T       0.00000000       0.00000000       0.00000000
Pd       3.06064652       2.70467076      10.76842060  T       0.00000000       0.00000000       0.00000000
Pd       3.05359569       8.10876742       4.56559865  F       0.00000000       0.00000000       0.00000000
Pd       6.10718542       2.70292306       1.50000000  F       0.00000000       0.00000000       0.00000000
Pd       7.63398177       0.00000000       3.02679635  F       0.00000000       0.00000000       0.00000000
Pd       1.52937916       5.40584880      12.00526151  T       0.00000000       0.00000000       0.00000000
Pd       6.10756908       8.10836243       7.64875592  T       0.00000000       0.00000000       0.00000000
Pd       0.00000079       8.10876600       4.56559869  F       0.00000000       0.00000000       0.00000000
Pd       6.10718651       8.10875952       4.56558968  F       0.00000000       0.00000000       0.00000000
Pd       1.52680247       5.40584247       6.11658534  F       0.00000000       0.00000000       0.00000000
Pd       7.63398177       5.40584612       3.02679635  F       0.00000000       0.00000000       0.00000000
Pd       6.10718542       8.10876919       1.50000000  F       0.00000000       0.00000000       0.00000000
Pd      -0.00014386       8.10626621       7.63906019  T       0.00000000       0.00000000       0.00000000
Pd       7.63946309      10.81316197      12.01880800  T       0.00000000       0.00000000       0.00000000
Pd       6.10979444       2.70266057      10.76620583  T       0.00000000       0.00000000       0.00000000
Pd       1.52843351       5.40039036       9.13457678  T       0.00000000       0.00000000       0.00000000
Pd       7.63439424      -0.00133798       9.14219448  T       0.00000000       0.00000000       0.00000000
Pd       6.10774716       2.70210905       7.64983144  T       0.00000000       0.00000000       0.00000000
Pd      12.21750142       8.10385986      10.72888675  T       0.00000000       0.00000000       0.00000000
Pd       7.63399583      10.81167532       6.11657540  F       0.00000000       0.00000000       0.00000000
Pd       6.10718592       2.70292523       4.56558724  F       0.00000000       0.00000000       0.00000000
Pd       1.52679635       5.40584612       3.02679635  F       0.00000000       0.00000000       0.00000000
Pd       0.00000000       2.70292306       1.50000000  F       0.00000000       0.00000000       0.00000000
C       -0.49676325       9.77258895      14.95792656  T       0.00000000       0.00000000       0.00000000
O       -0.52603355       8.63982561      15.13683202  T       0.00000000       0.00000000       0.00000000
