130
Lattice="12.21437083684855 0.0 7e-16 1.7e-15 10.811692246786171 7e-16 0.0 0.0 30.687574482242482" Properties=species:S:1:pos:R:3:move_mask:L:1:momenta:R:3 adsorbate_info="_JSON {\"site\": {\"coordinates\": [12.21436105768888, 10.811680910439762, 12.116899255330427], \"connectivity\": 2, \"topology\": [43, 46], \"n_vector\": [0.0825798573548101, 0.0620538097475487, 0.994650638091121], \"h_vector\": [1.5032914560338784e-05, 0.9999999998816, -3.288056665201407e-06], \"site_formula\": {\"O\": 2}}, \"smiles\": \"Cl[C]=O\", \"mdf\": 2.412751065336987, \"adsorbate_formula\": \"CO\"}" mace_E=-687.8420146642386 converged=T n_steps=22 d_min=3.1881447014540014 site_type=atop dE_rel_meV=0 original_idx=134 rank=1 E_MACE=-687.9484771888582 pbc="T T T"
O        3.05513731       6.71507409      12.16119086  T       0.00000000       0.00000000       0.00000000
O        6.11263535       1.30934349      12.17342059  T       0.00000000       0.00000000       0.00000000
O        6.10760785       4.10540532      12.16406593  T       0.00000000       0.00000000       0.00000000
O        6.10818192       1.35435077       9.16826809  T       0.00000000       0.00000000       0.00000000
O        6.10690782       4.04972599       9.16671934  T       0.00000000       0.00000000       0.00000000
O        6.10718343       1.35539432       6.10801899  F       0.00000000       0.00000000       0.00000000
O        6.10718534       4.05045008       6.10801162  F       0.00000000       0.00000000       0.00000000
O        6.10718542       1.35146153       3.02679635  F       0.00000000       0.00000000       0.00000000
O        6.10718542       4.05438459       3.02679635  F       0.00000000       0.00000000       0.00000000
O        9.16591975       9.51451845      12.14971584  T       0.00000000       0.00000000       0.00000000
O        3.05649167       9.51606361      12.14495049  T       0.00000000       0.00000000       0.00000000
O        3.05367052       6.75681570       9.16320312  T       0.00000000       0.00000000       0.00000000
O        3.05461776       9.45766616       9.16102841  T       0.00000000       0.00000000       0.00000000
O        3.05359341       6.76124998       6.10801980  F       0.00000000       0.00000000       0.00000000
O        3.05359360       9.45629444       6.10802097  F       0.00000000       0.00000000       0.00000000
O        3.05359271       6.75730765       3.02679635  F       0.00000000       0.00000000       0.00000000
O        3.05359271       9.46023072       3.02679635  F       0.00000000       0.00000000       0.00000000
O        3.05815336       1.31153797      12.17536685  T       0.00000000       0.00000000       0.00000000
O        6.10718542       9.46023072       3.02679635  F       0.00000000       0.00000000       0.00000000
O        6.10718542       6.75730765       3.02679635  F       0.00000000       0.00000000       0.00000000
O        6.10718028       9.45628983       6.10801454  F       0.00000000       0.00000000       0.00000000
O        6.10718760       6.76124043       6.10802244  F       0.00000000       0.00000000       0.00000000
O        9.16019317       6.75701056       9.16418151  T       0.00000000       0.00000000       0.00000000
O        9.16119709       9.45680563       9.16236274  T       0.00000000       0.00000000       0.00000000
O        9.16078073       6.76123572       6.10801818  F       0.00000000       0.00000000       0.00000000
O        9.16078059       9.45627785       6.10801483  F       0.00000000       0.00000000       0.00000000
O        9.16077813       6.75730765       3.02679635  F       0.00000000       0.00000000       0.00000000
O        9.16077813       9.46023072       3.02679635  F       0.00000000       0.00000000       0.00000000
O        9.16122131       1.31083827      12.17282133  T       0.00000000       0.00000000       0.00000000
O        9.16203751       4.10558738      12.16867608  T       0.00000000       0.00000000       0.00000000
O        3.05422448       4.10724056      12.16821162  T       0.00000000       0.00000000       0.00000000
O        9.15934377       1.35440857       9.16961164  T       0.00000000       0.00000000       0.00000000
O        9.16077827       1.35539012       6.10801450  F       0.00000000       0.00000000       0.00000000
O        9.16078421       4.05045012       6.10800209  F       0.00000000       0.00000000       0.00000000
O        9.16077813       1.35146153       3.02679635  F       0.00000000       0.00000000       0.00000000
O        9.16077813       4.05438459       3.02679635  F       0.00000000       0.00000000       0.00000000
O        6.10860752       6.71220538      12.16354099  T       0.00000000       0.00000000       0.00000000
O        6.11013307       9.51239828      12.15916031  T       0.00000000       0.00000000       0.00000000
O        6.10724045       6.75993070       9.16587359  T       0.00000000       0.00000000       0.00000000
O        6.10765043       9.45702996       9.16528616  T       0.00000000       0.00000000       0.00000000
O        9.15762931       4.04883321       9.16816960  T       0.00000000       0.00000000       0.00000000
O        3.05645457       1.35514611       9.17046298  T       0.00000000       0.00000000       0.00000000
O        9.16062502       6.71326688      12.16213211  T       0.00000000       0.00000000       0.00000000
O       12.21550020       9.51885899      12.11291593  T       0.00000000       0.00000000       0.00000000
O        0.00000000       6.75730765       3.02679635  F       0.00000000       0.00000000       0.00000000
O        3.05685261       4.04872221       9.16830125  T       0.00000000       0.00000000       0.00000000
O        0.00349725       1.31266707      12.16225752  T       0.00000000       0.00000000       0.00000000
O        0.00000951       9.45630243       6.10801529  F       0.00000000       0.00000000       0.00000000
O       12.21558259       4.10787900      12.16090580  T       0.00000000       0.00000000       0.00000000
O        0.00000182       6.76124509       6.10800952  F       0.00000000       0.00000000       0.00000000
O        0.00098501       9.46164020       9.14725660  T       0.00000000       0.00000000       0.00000000
O        0.00091688       1.35427632       9.16365397  T       0.00000000       0.00000000       0.00000000
O       -0.00026159       6.75276719       9.15194721  T       0.00000000       0.00000000       0.00000000
O       12.21417919       4.05008161       9.16200283  T       0.00000000       0.00000000       0.00000000
O       12.21311238       6.71572959      12.14298842  T       0.00000000       0.00000000       0.00000000
O        0.00000448       1.35539672       6.10801283  F       0.00000000       0.00000000       0.00000000
O        0.00000331       4.05045002       6.10801189  F       0.00000000       0.00000000       0.00000000
O        3.05359271       4.05438459       3.02679635  F       0.00000000       0.00000000       0.00000000
O        0.00000000       9.46023072       3.02679635  F       0.00000000       0.00000000       0.00000000
O        3.05359105       4.05044320       6.10802763  F       0.00000000       0.00000000       0.00000000
O        3.05359271       1.35146153       3.02679635  F       0.00000000       0.00000000       0.00000000
O        3.05359652       1.35540103       6.10801944  F       0.00000000       0.00000000       0.00000000
O        0.00000000       4.05438459       3.02679635  F       0.00000000       0.00000000       0.00000000
O        0.00000000       1.35146153       3.02679635  F       0.00000000       0.00000000       0.00000000
Pd       7.63475273       5.40840654      12.01443621  T       0.00000000       0.00000000       0.00000000
Pd      10.68692641       5.40951123      12.00858736  T       0.00000000       0.00000000       0.00000000
Pd       0.00000000       8.10876919       1.50000000  F       0.00000000       0.00000000       0.00000000
Pd       9.16224811       8.10869261      10.75705469  T       0.00000000       0.00000000       0.00000000
Pd       1.52679635       0.00000000       3.02679635  F       0.00000000       0.00000000       0.00000000
Pd       9.16077813       2.70292306       1.50000000  F       0.00000000       0.00000000       0.00000000
Pd      10.68757448       0.00000000       3.02679635  F       0.00000000       0.00000000       0.00000000
Pd      10.68550694       5.40134962       9.13480713  T       0.00000000       0.00000000       0.00000000
Pd       1.53329751       0.01132567      12.00203543  T       0.00000000       0.00000000       0.00000000
Pd       9.16077900       2.70292450       4.56559698  F       0.00000000       0.00000000       0.00000000
Pd      10.68756280      10.81168006       6.11657659  F       0.00000000       0.00000000       0.00000000
Pd       9.16077776       8.10875607       4.56559406  F       0.00000000       0.00000000       0.00000000
Pd       1.52678677       0.00000067       6.11658292  F       0.00000000       0.00000000       0.00000000
Pd       9.15950249       8.10729715       7.64769088  T       0.00000000       0.00000000       0.00000000
Pd       9.15840890       2.70165668       7.65046084  T       0.00000000       0.00000000       0.00000000
Pd      10.68702267       0.00150369       9.13114948  T       0.00000000       0.00000000       0.00000000
Pd       0.00000135       2.70292705       4.56560641  F       0.00000000       0.00000000       0.00000000
Pd       1.52920695      10.81378688       9.13022353  T       0.00000000       0.00000000       0.00000000
Pd       9.15798076       2.70542379      10.76746549  T       0.00000000       0.00000000       0.00000000
Pd       6.10880859       8.10998770      10.76131917  T       0.00000000       0.00000000       0.00000000
Pd      10.68829409      10.82423105      12.00157343  T       0.00000000       0.00000000       0.00000000
Pd      -0.00009731       2.70177963       7.64718908  T       0.00000000       0.00000000       0.00000000
Pd      10.68757280       5.40584816       6.11657764  F       0.00000000       0.00000000       0.00000000
Pd       9.16077813       8.10876919       1.50000000  F       0.00000000       0.00000000       0.00000000
Pd      10.68757448       5.40584612       3.02679635  F       0.00000000       0.00000000       0.00000000
Pd      12.21583466       2.70798470      10.75928889  T       0.00000000       0.00000000       0.00000000
Pd       4.58168760       0.00020097       9.13970054  T       0.00000000       0.00000000       0.00000000
Pd       7.63397856       5.40585179       6.11657833  F       0.00000000       0.00000000       0.00000000
Pd       7.63268401       5.40424145       9.13949773  T       0.00000000       0.00000000       0.00000000
Pd       4.58133445       5.40952011      12.01328268  T       0.00000000       0.00000000       0.00000000
Pd       3.05309046       8.10911558      10.75412917  T       0.00000000       0.00000000       0.00000000
Pd       4.58038906       0.00000000       3.02679635  F       0.00000000       0.00000000       0.00000000
Pd       4.58140609       5.40434423       9.13895257  T       0.00000000       0.00000000       0.00000000
Pd       3.05461234       8.10744224       7.64681375  T       0.00000000       0.00000000       0.00000000
Pd       3.05359494       2.70292824       4.56560681  F       0.00000000       0.00000000       0.00000000
Pd       3.05359271       2.70292306       1.50000000  F       0.00000000       0.00000000       0.00000000
Pd       4.58039501       5.40584640       6.11658908  F       0.00000000       0.00000000       0.00000000
Pd       4.58040505      10.81168838       6.11658203  F       0.00000000       0.00000000       0.00000000
Pd       4.58038906       5.40584612       3.02679635  F       0.00000000       0.00000000       0.00000000
Pd       3.05359271       8.10876919       1.50000000  F       0.00000000       0.00000000       0.00000000
Pd       3.05634933       2.70170546       7.65066915  T       0.00000000       0.00000000       0.00000000
Pd       4.58563334       0.00793264      12.01316867  T       0.00000000       0.00000000       0.00000000
Pd       3.05812700       2.70567304      10.76857309  T       0.00000000       0.00000000       0.00000000
Pd       3.05359569       8.10876742       4.56559865  F       0.00000000       0.00000000       0.00000000
Pd       6.10718542       2.70292306       1.50000000  F       0.00000000       0.00000000       0.00000000
Pd       7.63398177       0.00000000       3.02679635  F       0.00000000       0.00000000       0.00000000
Pd       1.52837908       5.41113832      12.00908992  T       0.00000000       0.00000000       0.00000000
Pd       6.10734443       8.10850284       7.64868685  T       0.00000000       0.00000000       0.00000000
Pd       0.00000079       8.10876600       4.56559869  F       0.00000000       0.00000000       0.00000000
Pd       6.10718651       8.10875952       4.56558968  F       0.00000000       0.00000000       0.00000000
Pd       1.52680247       5.40584247       6.11658534  F       0.00000000       0.00000000       0.00000000
Pd       7.63398177       5.40584612       3.02679635  F       0.00000000       0.00000000       0.00000000
Pd       6.10718542       8.10876919       1.50000000  F       0.00000000       0.00000000       0.00000000
Pd       0.00060575       8.10727319       7.64040421  T       0.00000000       0.00000000       0.00000000
Pd       7.63701664      10.81663531      12.01444813  T       0.00000000       0.00000000       0.00000000
Pd       6.10939833       2.70354203      10.76533950  T       0.00000000       0.00000000       0.00000000
Pd       1.52848829       5.40114987       9.13427170  T       0.00000000       0.00000000       0.00000000
Pd       7.63410350      -0.00048805       9.14008115  T       0.00000000       0.00000000       0.00000000
Pd       6.10738010       2.70217670       7.64949983  T       0.00000000       0.00000000       0.00000000
Pd      12.21484070       8.10675867      10.73429069  T       0.00000000       0.00000000       0.00000000
Pd       7.63399583      10.81167532       6.11657540  F       0.00000000       0.00000000       0.00000000
Pd       6.10718592       2.70292523       4.56558724  F       0.00000000       0.00000000       0.00000000
Pd       1.52679635       5.40584612       3.02679635  F       0.00000000       0.00000000       0.00000000
Pd       0.00000000       2.70292306       1.50000000  F       0.00000000       0.00000000       0.00000000
C       12.22285898       8.90650831      14.92662104  T       0.00000000       0.00000000       0.00000000
O       13.35975058       8.83705736      15.06871508  T       0.00000000       0.00000000       0.00000000
