130
Lattice="12.21437083684855 0.0 7e-16 1.7e-15 10.811692246786171 7e-16 0.0 0.0 30.687574482242482" Properties=species:S:1:pos:R:3:move_mask:L:1:momenta:R:3 adsorbate_info="_JSON {\"site\": {\"coordinates\": [7.633981318696908, 6.2652563126919, 12.069810812231522], \"connectivity\": 3, \"topology\": [36, 42, 64], \"n_vector\": [-0.0005910101526500338, -0.05529174210218884, 0.9984700666330987], \"h_vector\": [0.7621408936643304, -0.643561683635862, -0.07049551446943601], \"site_formula\": {\"O\": 2, \"Pd\": 1}}, \"smiles\": \"Cl[C]=O\", \"mdf\": 2.4195491434980427, \"adsorbate_formula\": \"CO\"}" mace_E=-687.8537063005953 converged=T n_steps=22 d_min=2.967652048919811 site_type=atop dE_rel_meV=0 original_idx=83 rank=5 E_MACE=-687.9463233592496 pbc="T T T"
O        3.05283588       6.70483283      12.15773130  T       0.00000000       0.00000000       0.00000000
O        6.10554050       1.30074134      12.16047096  T       0.00000000       0.00000000       0.00000000
O        6.10437124       4.09325823      12.16355001  T       0.00000000       0.00000000       0.00000000
O        6.10750288       1.35564495       9.16265993  T       0.00000000       0.00000000       0.00000000
O        6.10661708       4.05116907       9.16438685  T       0.00000000       0.00000000       0.00000000
O        6.10718343       1.35539432       6.10801899  F       0.00000000       0.00000000       0.00000000
O        6.10718534       4.05045008       6.10801162  F       0.00000000       0.00000000       0.00000000
O        6.10718542       1.35146153       3.02679635  F       0.00000000       0.00000000       0.00000000
O        6.10718542       4.05438459       3.02679635  F       0.00000000       0.00000000       0.00000000
O        9.15862148       9.50409688      12.16575166  T       0.00000000       0.00000000       0.00000000
O        3.05237940       9.50415459      12.16707578  T       0.00000000       0.00000000       0.00000000
O        3.05324509       6.76017852       9.16592912  T       0.00000000       0.00000000       0.00000000
O        3.05346149       9.45856266       9.16661370  T       0.00000000       0.00000000       0.00000000
O        3.05359341       6.76124998       6.10801980  F       0.00000000       0.00000000       0.00000000
O        3.05359360       9.45629444       6.10802097  F       0.00000000       0.00000000       0.00000000
O        3.05359271       6.75730765       3.02679635  F       0.00000000       0.00000000       0.00000000
O        3.05359271       9.46023072       3.02679635  F       0.00000000       0.00000000       0.00000000
O        3.05048370       1.30144121      12.17112014  T       0.00000000       0.00000000       0.00000000
O        6.10718542       9.46023072       3.02679635  F       0.00000000       0.00000000       0.00000000
O        6.10718542       6.75730765       3.02679635  F       0.00000000       0.00000000       0.00000000
O        6.10718028       9.45628983       6.10801454  F       0.00000000       0.00000000       0.00000000
O        6.10718760       6.76124043       6.10802244  F       0.00000000       0.00000000       0.00000000
O        9.16040610       6.76002687       9.16543889  T       0.00000000       0.00000000       0.00000000
O        9.16117708       9.45808599       9.16692110  T       0.00000000       0.00000000       0.00000000
O        9.16078073       6.76123572       6.10801818  F       0.00000000       0.00000000       0.00000000
O        9.16078059       9.45627785       6.10801483  F       0.00000000       0.00000000       0.00000000
O        9.16077813       6.75730765       3.02679635  F       0.00000000       0.00000000       0.00000000
O        9.16077813       9.46023072       3.02679635  F       0.00000000       0.00000000       0.00000000
O        9.15809340       1.29920420      12.17110893  T       0.00000000       0.00000000       0.00000000
O        9.15908587       4.09434045      12.17793347  T       0.00000000       0.00000000       0.00000000
O        3.05021144       4.09672219      12.17814167  T       0.00000000       0.00000000       0.00000000
O        9.16399443       1.35654041       9.17021281  T       0.00000000       0.00000000       0.00000000
O        9.16077827       1.35539012       6.10801450  F       0.00000000       0.00000000       0.00000000
O        9.16078421       4.05045012       6.10800209  F       0.00000000       0.00000000       0.00000000
O        9.16077813       1.35146153       3.02679635  F       0.00000000       0.00000000       0.00000000
O        9.16077813       4.05438459       3.02679635  F       0.00000000       0.00000000       0.00000000
O        6.10640690       6.70214231      12.10669922  T       0.00000000       0.00000000       0.00000000
O        6.10281479       9.50362336      12.13706395  T       0.00000000       0.00000000       0.00000000
O        6.10689340       6.75528177       9.14655064  T       0.00000000       0.00000000       0.00000000
O        6.10690123       9.46517761       9.14920787  T       0.00000000       0.00000000       0.00000000
O        9.16249180       4.04972201       9.17194973  T       0.00000000       0.00000000       0.00000000
O        3.04970322       1.35735664       9.17007196  T       0.00000000       0.00000000       0.00000000
O        9.15472105       6.70405393      12.15940627  T       0.00000000       0.00000000       0.00000000
O       12.21232939       9.50488248      12.16627727  T       0.00000000       0.00000000       0.00000000
O        0.00000000       6.75730765       3.02679635  F       0.00000000       0.00000000       0.00000000
O        3.05083503       4.05020284       9.17179018  T       0.00000000       0.00000000       0.00000000
O       -0.00227931       1.30036962      12.16496622  T       0.00000000       0.00000000       0.00000000
O        0.00000951       9.45630243       6.10801529  F       0.00000000       0.00000000       0.00000000
O       12.21035904       4.09783178      12.17159126  T       0.00000000       0.00000000       0.00000000
O        0.00000182       6.76124509       6.10800952  F       0.00000000       0.00000000       0.00000000
O       -0.00009255       9.45630501       9.16763332  T       0.00000000       0.00000000       0.00000000
O        0.00005237       1.35517844       9.16716508  T       0.00000000       0.00000000       0.00000000
O       -0.00069776       6.76036815       9.16704522  T       0.00000000       0.00000000       0.00000000
O       12.21390365       4.05100257       9.16869512  T       0.00000000       0.00000000       0.00000000
O       12.21072253       6.70579745      12.16290498  T       0.00000000       0.00000000       0.00000000
O        0.00000448       1.35539672       6.10801283  F       0.00000000       0.00000000       0.00000000
O        0.00000331       4.05045002       6.10801189  F       0.00000000       0.00000000       0.00000000
O        3.05359271       4.05438459       3.02679635  F       0.00000000       0.00000000       0.00000000
O        0.00000000       9.46023072       3.02679635  F       0.00000000       0.00000000       0.00000000
O        3.05359105       4.05044320       6.10802763  F       0.00000000       0.00000000       0.00000000
O        3.05359271       1.35146153       3.02679635  F       0.00000000       0.00000000       0.00000000
O        3.05359652       1.35540103       6.10801944  F       0.00000000       0.00000000       0.00000000
O        0.00000000       4.05438459       3.02679635  F       0.00000000       0.00000000       0.00000000
O        0.00000000       1.35146153       3.02679635  F       0.00000000       0.00000000       0.00000000
Pd       7.63323998       5.39410617      12.00392050  T       0.00000000       0.00000000       0.00000000
Pd      10.68395942       5.40103475      12.01858613  T       0.00000000       0.00000000       0.00000000
Pd       0.00000000       8.10876919       1.50000000  F       0.00000000       0.00000000       0.00000000
Pd       9.15859526       8.10750586      10.76200992  T       0.00000000       0.00000000       0.00000000
Pd       1.52679635       0.00000000       3.02679635  F       0.00000000       0.00000000       0.00000000
Pd       9.16077813       2.70292306       1.50000000  F       0.00000000       0.00000000       0.00000000
Pd      10.68757448       0.00000000       3.02679635  F       0.00000000       0.00000000       0.00000000
Pd      10.68740590       5.40550668       9.14114340  T       0.00000000       0.00000000       0.00000000
Pd       1.52484360      -0.00305796      12.01647497  T       0.00000000       0.00000000       0.00000000
Pd       9.16077900       2.70292450       4.56559698  F       0.00000000       0.00000000       0.00000000
Pd      10.68756280      10.81168006       6.11657659  F       0.00000000       0.00000000       0.00000000
Pd       9.16077776       8.10875607       4.56559406  F       0.00000000       0.00000000       0.00000000
Pd       1.52678677       0.00000067       6.11658292  F       0.00000000       0.00000000       0.00000000
Pd       9.16195201       8.10925108       7.64919795  T       0.00000000       0.00000000       0.00000000
Pd       9.16284355       2.70357051       7.65147993  T       0.00000000       0.00000000       0.00000000
Pd      10.68861688       0.00018734       9.14027089  T       0.00000000       0.00000000       0.00000000
Pd       0.00000135       2.70292705       4.56560641  F       0.00000000       0.00000000       0.00000000
Pd       1.52582597      10.81200999       9.13971206  T       0.00000000       0.00000000       0.00000000
Pd       9.16279625       2.70011264      10.77024441  T       0.00000000       0.00000000       0.00000000
Pd       6.10616212       8.11276350      10.72879132  T       0.00000000       0.00000000       0.00000000
Pd      10.68514516      10.80802978      12.01678498  T       0.00000000       0.00000000       0.00000000
Pd      -0.00015176       2.70329949       7.64976288  T       0.00000000       0.00000000       0.00000000
Pd      10.68757280       5.40584816       6.11657764  F       0.00000000       0.00000000       0.00000000
Pd       9.16077813       8.10876919       1.50000000  F       0.00000000       0.00000000       0.00000000
Pd      10.68757448       5.40584612       3.02679635  F       0.00000000       0.00000000       0.00000000
Pd      12.21254014       2.70186227      10.76511457  T       0.00000000       0.00000000       0.00000000
Pd       4.57795831       0.00453406       9.13364069  T       0.00000000       0.00000000       0.00000000
Pd       7.63397856       5.40585179       6.11657833  F       0.00000000       0.00000000       0.00000000
Pd       7.63511061       5.40331278       9.13127911  T       0.00000000       0.00000000       0.00000000
Pd       4.57592438       5.39667786      12.00655481  T       0.00000000       0.00000000       0.00000000
Pd       3.05435374       8.10796001      10.76113985  T       0.00000000       0.00000000       0.00000000
Pd       4.58038906       0.00000000       3.02679635  F       0.00000000       0.00000000       0.00000000
Pd       4.57828603       5.40326819       9.13226971  T       0.00000000       0.00000000       0.00000000
Pd       3.05258001       8.10924513       7.64914608  T       0.00000000       0.00000000       0.00000000
Pd       3.05359494       2.70292824       4.56560681  F       0.00000000       0.00000000       0.00000000
Pd       3.05359271       2.70292306       1.50000000  F       0.00000000       0.00000000       0.00000000
Pd       4.58039501       5.40584640       6.11658908  F       0.00000000       0.00000000       0.00000000
Pd       4.58040505      10.81168838       6.11658203  F       0.00000000       0.00000000       0.00000000
Pd       4.58038906       5.40584612       3.02679635  F       0.00000000       0.00000000       0.00000000
Pd       3.05359271       8.10876919       1.50000000  F       0.00000000       0.00000000       0.00000000
Pd       3.05115915       2.70386412       7.65137911  T       0.00000000       0.00000000       0.00000000
Pd       4.57691313      -0.00135659      12.00911368  T       0.00000000       0.00000000       0.00000000
Pd       3.04793945       2.70213509      10.77040600  T       0.00000000       0.00000000       0.00000000
Pd       3.05359569       8.10876742       4.56559865  F       0.00000000       0.00000000       0.00000000
Pd       6.10718542       2.70292306       1.50000000  F       0.00000000       0.00000000       0.00000000
Pd       7.63398177       0.00000000       3.02679635  F       0.00000000       0.00000000       0.00000000
Pd       1.52282429       5.40085066      12.01804366  T       0.00000000       0.00000000       0.00000000
Pd       6.10681323       8.10981561       7.63930783  T       0.00000000       0.00000000       0.00000000
Pd       0.00000079       8.10876600       4.56559869  F       0.00000000       0.00000000       0.00000000
Pd       6.10718651       8.10875952       4.56558968  F       0.00000000       0.00000000       0.00000000
Pd       1.52680247       5.40584247       6.11658534  F       0.00000000       0.00000000       0.00000000
Pd       7.63398177       5.40584612       3.02679635  F       0.00000000       0.00000000       0.00000000
Pd       6.10718542       8.10876919       1.50000000  F       0.00000000       0.00000000       0.00000000
Pd      -0.00021205       8.10865629       7.64954148  T       0.00000000       0.00000000       0.00000000
Pd       7.63210627      10.80724831      12.01060750  T       0.00000000       0.00000000       0.00000000
Pd       6.10646152       2.69926705      10.75888315  T       0.00000000       0.00000000       0.00000000
Pd       1.52598685       5.40577133       9.14087496  T       0.00000000       0.00000000       0.00000000
Pd       7.63630903       0.00372612       9.13448908  T       0.00000000       0.00000000       0.00000000
Pd       6.10744953       2.70379011       7.64757532  T       0.00000000       0.00000000       0.00000000
Pd      12.21224455       8.10709967      10.76361958  T       0.00000000       0.00000000       0.00000000
Pd       7.63399583      10.81167532       6.11657540  F       0.00000000       0.00000000       0.00000000
Pd       6.10718592       2.70292523       4.56558724  F       0.00000000       0.00000000       0.00000000
Pd       1.52679635       5.40584612       3.02679635  F       0.00000000       0.00000000       0.00000000
Pd       0.00000000       2.70292306       1.50000000  F       0.00000000       0.00000000       0.00000000
C        6.36193168       7.60250589      14.82424880  T       0.00000000       0.00000000       0.00000000
O        5.61929899       6.78078710      15.12977791  T       0.00000000       0.00000000       0.00000000
