130
Lattice="12.21437083684855 0.0 7e-16 1.7e-15 10.811692246786171 7e-16 0.0 0.0 30.687574482242482" Properties=species:S:1:pos:R:3:move_mask:L:1:momenta:R:3 adsorbate_info="_JSON {\"site\": {\"coordinates\": [11.4509531955492, 4.761274916855751, 12.046288608155919], \"connectivity\": 2, \"topology\": [48, 65], \"n_vector\": [0.0565235243621735, -0.0734586111059067, 0.9956951961559671], \"h_vector\": [0.7621551255055082, -0.643543185358184, 0.07051051868143514], \"site_formula\": {\"O\": 1, \"Pd\": 1}}, \"smiles\": \"Cl[C]=O\", \"mdf\": 2.6008251411765193, \"adsorbate_formula\": \"CO\"}" mace_E=-687.9499342381896 converged=T n_steps=40 d_min=3.1061986056013287 site_type=atop dE_rel_meV=0 original_idx=123 rank=133 E_MACE=-687.8219071495555 pbc="T T T"
O        3.04724030       6.71480876      12.16822021  T       0.00000000       0.00000000       0.00000000
O        6.10036944       1.30989414      12.16836794  T       0.00000000       0.00000000       0.00000000
O        6.10041777       4.10506536      12.16501909  T       0.00000000       0.00000000       0.00000000
O        6.10139820       1.35646299       9.16690035  T       0.00000000       0.00000000       0.00000000
O        6.10252421       4.05414437       9.16692245  T       0.00000000       0.00000000       0.00000000
O        6.10718343       1.35539432       6.10801899  F       0.00000000       0.00000000       0.00000000
O        6.10718534       4.05045008       6.10801162  F       0.00000000       0.00000000       0.00000000
O        6.10718542       1.35146153       3.02679635  F       0.00000000       0.00000000       0.00000000
O        6.10718542       4.05438459       3.02679635  F       0.00000000       0.00000000       0.00000000
O        9.15254091       9.51119682      12.16765051  T       0.00000000       0.00000000       0.00000000
O        3.04790827       9.51294816      12.16638970  T       0.00000000       0.00000000       0.00000000
O        3.04906930       6.76187537       9.16976891  T       0.00000000       0.00000000       0.00000000
O        3.04903595       9.45844130       9.16699666  T       0.00000000       0.00000000       0.00000000
O        3.05359341       6.76124998       6.10801980  F       0.00000000       0.00000000       0.00000000
O        3.05359360       9.45629444       6.10802097  F       0.00000000       0.00000000       0.00000000
O        3.05359271       6.75730765       3.02679635  F       0.00000000       0.00000000       0.00000000
O        3.05359271       9.46023072       3.02679635  F       0.00000000       0.00000000       0.00000000
O        3.04810789       1.31062293      12.16708389  T       0.00000000       0.00000000       0.00000000
O        6.10718542       9.46023072       3.02679635  F       0.00000000       0.00000000       0.00000000
O        6.10718542       6.75730765       3.02679635  F       0.00000000       0.00000000       0.00000000
O        6.10718028       9.45628983       6.10801454  F       0.00000000       0.00000000       0.00000000
O        6.10718760       6.76124043       6.10802244  F       0.00000000       0.00000000       0.00000000
O        9.15640423       6.76204637       9.17029463  T       0.00000000       0.00000000       0.00000000
O        9.15560177       9.46007384       9.16787714  T       0.00000000       0.00000000       0.00000000
O        9.16078073       6.76123572       6.10801818  F       0.00000000       0.00000000       0.00000000
O        9.16078059       9.45627785       6.10801483  F       0.00000000       0.00000000       0.00000000
O        9.16077813       6.75730765       3.02679635  F       0.00000000       0.00000000       0.00000000
O        9.16077813       9.46023072       3.02679635  F       0.00000000       0.00000000       0.00000000
O        9.15536765       1.30726609      12.17282806  T       0.00000000       0.00000000       0.00000000
O        9.14959094       4.09506075      12.15995542  T       0.00000000       0.00000000       0.00000000
O        3.04663974       4.10690646      12.16275893  T       0.00000000       0.00000000       0.00000000
O        9.15644930       1.35558778       9.16830013  T       0.00000000       0.00000000       0.00000000
O        9.16077827       1.35539012       6.10801450  F       0.00000000       0.00000000       0.00000000
O        9.16078421       4.05045012       6.10800209  F       0.00000000       0.00000000       0.00000000
O        9.16077813       1.35146153       3.02679635  F       0.00000000       0.00000000       0.00000000
O        9.16077813       4.05438459       3.02679635  F       0.00000000       0.00000000       0.00000000
O        6.10123336       6.71514279      12.16918745  T       0.00000000       0.00000000       0.00000000
O        6.10052335       9.51306844      12.16826749  T       0.00000000       0.00000000       0.00000000
O        6.10263874       6.76384245       9.17032337  T       0.00000000       0.00000000       0.00000000
O        6.10315201       9.46020737       9.16686471  T       0.00000000       0.00000000       0.00000000
O        9.15704884       4.05401271       9.16968171  T       0.00000000       0.00000000       0.00000000
O        3.04949899       1.35551896       9.16713403  T       0.00000000       0.00000000       0.00000000
O        9.14652322       6.72609200      12.16932713  T       0.00000000       0.00000000       0.00000000
O       12.21080526       9.51261247      12.16443525  T       0.00000000       0.00000000       0.00000000
O        0.00000000       6.75730765       3.02679635  F       0.00000000       0.00000000       0.00000000
O        3.04987538       4.05377984       9.16579860  T       0.00000000       0.00000000       0.00000000
O       -0.00703434       1.30661697      12.16649816  T       0.00000000       0.00000000       0.00000000
O        0.00000951       9.45630243       6.10801529  F       0.00000000       0.00000000       0.00000000
O       12.21380138       4.09188889      12.16620235  T       0.00000000       0.00000000       0.00000000
O        0.00000182       6.76124509       6.10800952  F       0.00000000       0.00000000       0.00000000
O       -0.00414522       9.45951507       9.16742386  T       0.00000000       0.00000000       0.00000000
O       -0.00380298       1.35623361       9.16831286  T       0.00000000       0.00000000       0.00000000
O       -0.00543786       6.76090974       9.17018636  T       0.00000000       0.00000000       0.00000000
O       12.20775711       4.05480093       9.16923036  T       0.00000000       0.00000000       0.00000000
O       12.21609849       6.73027262      12.16940608  T       0.00000000       0.00000000       0.00000000
O        0.00000448       1.35539672       6.10801283  F       0.00000000       0.00000000       0.00000000
O        0.00000331       4.05045002       6.10801189  F       0.00000000       0.00000000       0.00000000
O        3.05359271       4.05438459       3.02679635  F       0.00000000       0.00000000       0.00000000
O        0.00000000       9.46023072       3.02679635  F       0.00000000       0.00000000       0.00000000
O        3.05359105       4.05044320       6.10802763  F       0.00000000       0.00000000       0.00000000
O        3.05359271       1.35146153       3.02679635  F       0.00000000       0.00000000       0.00000000
O        3.05359652       1.35540103       6.10801944  F       0.00000000       0.00000000       0.00000000
O        0.00000000       4.05438459       3.02679635  F       0.00000000       0.00000000       0.00000000
O        0.00000000       1.35146153       3.02679635  F       0.00000000       0.00000000       0.00000000
Pd       7.62715065       5.40993912      12.01879532  T       0.00000000       0.00000000       0.00000000
Pd      10.68383541       5.41287667      12.04371869  T       0.00000000       0.00000000       0.00000000
Pd       0.00000000       8.10876919       1.50000000  F       0.00000000       0.00000000       0.00000000
Pd       9.14963430       8.11476906      10.76334299  T       0.00000000       0.00000000       0.00000000
Pd       1.52679635       0.00000000       3.02679635  F       0.00000000       0.00000000       0.00000000
Pd       9.16077813       2.70292306       1.50000000  F       0.00000000       0.00000000       0.00000000
Pd      10.68757448       0.00000000       3.02679635  F       0.00000000       0.00000000       0.00000000
Pd      10.68206466       5.40831619       9.14622049  T       0.00000000       0.00000000       0.00000000
Pd       1.52150918       0.00567206      12.01852894  T       0.00000000       0.00000000       0.00000000
Pd       9.16077900       2.70292450       4.56559698  F       0.00000000       0.00000000       0.00000000
Pd      10.68756280      10.81168006       6.11657659  F       0.00000000       0.00000000       0.00000000
Pd       9.16077776       8.10875607       4.56559406  F       0.00000000       0.00000000       0.00000000
Pd       1.52678677       0.00000067       6.11658292  F       0.00000000       0.00000000       0.00000000
Pd       9.15883684       8.10963567       7.65051842  T       0.00000000       0.00000000       0.00000000
Pd       9.15952123       2.70430933       7.65032078  T       0.00000000       0.00000000       0.00000000
Pd      10.68346556       0.00199528       9.13978371  T       0.00000000       0.00000000       0.00000000
Pd       0.00000135       2.70292705       4.56560641  F       0.00000000       0.00000000       0.00000000
Pd       1.52258070      10.81326947       9.13749403  T       0.00000000       0.00000000       0.00000000
Pd       9.15232515       2.69953632      10.76185628  T       0.00000000       0.00000000       0.00000000
Pd       6.10163582       8.11384736      10.76698968  T       0.00000000       0.00000000       0.00000000
Pd      10.68096339      10.81367167      12.01857194  T       0.00000000       0.00000000       0.00000000
Pd      -0.00328619       2.70438983       7.65029426  T       0.00000000       0.00000000       0.00000000
Pd      10.68757280       5.40584816       6.11657764  F       0.00000000       0.00000000       0.00000000
Pd       9.16077813       8.10876919       1.50000000  F       0.00000000       0.00000000       0.00000000
Pd      10.68757448       5.40584612       3.02679635  F       0.00000000       0.00000000       0.00000000
Pd      12.21083500       2.70288698      10.76220469  T       0.00000000       0.00000000       0.00000000
Pd       4.57563584       0.00136326       9.13639029  T       0.00000000       0.00000000       0.00000000
Pd       7.63397856       5.40585179       6.11657833  F       0.00000000       0.00000000       0.00000000
Pd       7.62856205       5.40851298       9.14019270  T       0.00000000       0.00000000       0.00000000
Pd       4.57346763       5.41059290      12.01744889  T       0.00000000       0.00000000       0.00000000
Pd       3.04877813       8.11244927      10.76628404  T       0.00000000       0.00000000       0.00000000
Pd       4.58038906       0.00000000       3.02679635  F       0.00000000       0.00000000       0.00000000
Pd       4.57636680       5.40875918       9.13895061  T       0.00000000       0.00000000       0.00000000
Pd       3.05146523       8.10897522       7.65084646  T       0.00000000       0.00000000       0.00000000
Pd       3.05359494       2.70292824       4.56560681  F       0.00000000       0.00000000       0.00000000
Pd       3.05359271       2.70292306       1.50000000  F       0.00000000       0.00000000       0.00000000
Pd       4.58039501       5.40584640       6.11658908  F       0.00000000       0.00000000       0.00000000
Pd       4.58040505      10.81168838       6.11658203  F       0.00000000       0.00000000       0.00000000
Pd       4.58038906       5.40584612       3.02679635  F       0.00000000       0.00000000       0.00000000
Pd       3.05359271       8.10876919       1.50000000  F       0.00000000       0.00000000       0.00000000
Pd       3.05217633       2.70339336       7.64985652  T       0.00000000       0.00000000       0.00000000
Pd       4.57430517       0.00584420      12.02019923  T       0.00000000       0.00000000       0.00000000
Pd       3.04966857       2.70659466      10.76317169  T       0.00000000       0.00000000       0.00000000
Pd       3.05359569       8.10876742       4.56559865  F       0.00000000       0.00000000       0.00000000
Pd       6.10718542       2.70292306       1.50000000  F       0.00000000       0.00000000       0.00000000
Pd       7.63398177       0.00000000       3.02679635  F       0.00000000       0.00000000       0.00000000
Pd       1.51746085       5.41131770      12.02054006  T       0.00000000       0.00000000       0.00000000
Pd       6.10455434       8.10998714       7.65095510  T       0.00000000       0.00000000       0.00000000
Pd       0.00000079       8.10876600       4.56559869  F       0.00000000       0.00000000       0.00000000
Pd       6.10718651       8.10875952       4.56558968  F       0.00000000       0.00000000       0.00000000
Pd       1.52680247       5.40584247       6.11658534  F       0.00000000       0.00000000       0.00000000
Pd       7.63398177       5.40584612       3.02679635  F       0.00000000       0.00000000       0.00000000
Pd       6.10718542       8.10876919       1.50000000  F       0.00000000       0.00000000       0.00000000
Pd      -0.00292515       8.10904661       7.65055129  T       0.00000000       0.00000000       0.00000000
Pd       7.62742728      10.81684167      12.02206207  T       0.00000000       0.00000000       0.00000000
Pd       6.09962575       2.70591157      10.76415156  T       0.00000000       0.00000000       0.00000000
Pd       1.52244857       5.40743844       9.14028605  T       0.00000000       0.00000000       0.00000000
Pd       7.62911481       0.00291914       9.13756919  T       0.00000000       0.00000000       0.00000000
Pd       6.10410431       2.70421633       7.65004144  T       0.00000000       0.00000000       0.00000000
Pd      12.21363727       8.11440654      10.76281927  T       0.00000000       0.00000000       0.00000000
Pd       7.63399583      10.81167532       6.11657540  F       0.00000000       0.00000000       0.00000000
Pd       6.10718592       2.70292523       4.56558724  F       0.00000000       0.00000000       0.00000000
Pd       1.52679635       5.40584612       3.02679635  F       0.00000000       0.00000000       0.00000000
Pd       0.00000000       2.70292306       1.50000000  F       0.00000000       0.00000000       0.00000000
C       10.55201553       5.39854134      14.49829785  T       0.00000000       0.00000000       0.00000000
O        9.54733176       5.25943497      15.04615082  T       0.00000000       0.00000000       0.00000000
