130
Lattice="12.21437083684855 0.0 7e-16 1.7e-15 10.811692246786171 7e-16 0.0 0.0 30.687574482242482" Properties=species:S:1:pos:R:3:move_mask:L:1:momenta:R:3 adsorbate_info="_JSON {\"site\": {\"coordinates\": [3.053567557419213, 8.108733483669354, 12.116894985083194], \"connectivity\": 2, \"topology\": [0, 10], \"n_vector\": [-0.06674366528389966, 0.00431323128612188, 0.997760832654972], \"h_vector\": [1.3752049614882272e-05, 0.9999999998391675, 1.1512867985557533e-05], \"site_formula\": {\"O\": 2}}, \"smiles\": \"Cl[C]=O\", \"mdf\": 2.299044924373172, \"adsorbate_formula\": \"CO\"}" mace_E=-687.8494334083167 converged=T n_steps=29 d_min=3.0179485034316116 site_type=bridge dE_rel_meV=0 original_idx=32 rank=65 E_MACE=-687.8558477354287 pbc="T T T"
O        3.05837149       6.71043542      12.15118761  T       0.00000000       0.00000000       0.00000000
O        6.10721609       1.30048438      12.16370580  T       0.00000000       0.00000000       0.00000000
O        6.10919867       4.09588774      12.16350869  T       0.00000000       0.00000000       0.00000000
O        6.10760196       1.35130063       9.16424489  T       0.00000000       0.00000000       0.00000000
O        6.10986524       4.05040765       9.16590511  T       0.00000000       0.00000000       0.00000000
O        6.10718343       1.35539432       6.10801899  F       0.00000000       0.00000000       0.00000000
O        6.10718534       4.05045008       6.10801162  F       0.00000000       0.00000000       0.00000000
O        6.10718542       1.35146153       3.02679635  F       0.00000000       0.00000000       0.00000000
O        6.10718542       4.05438459       3.02679635  F       0.00000000       0.00000000       0.00000000
O        9.16163529       9.50420209      12.17240455  T       0.00000000       0.00000000       0.00000000
O        3.05340058       9.50507587      12.15666592  T       0.00000000       0.00000000       0.00000000
O        3.05406988       6.75420862       9.15985509  T       0.00000000       0.00000000       0.00000000
O        3.05270762       9.45723156       9.16076319  T       0.00000000       0.00000000       0.00000000
O        3.05359341       6.76124998       6.10801980  F       0.00000000       0.00000000       0.00000000
O        3.05359360       9.45629444       6.10802097  F       0.00000000       0.00000000       0.00000000
O        3.05359271       6.75730765       3.02679635  F       0.00000000       0.00000000       0.00000000
O        3.05359271       9.46023072       3.02679635  F       0.00000000       0.00000000       0.00000000
O        3.05435179       1.30164152      12.15454169  T       0.00000000       0.00000000       0.00000000
O        6.10718542       9.46023072       3.02679635  F       0.00000000       0.00000000       0.00000000
O        6.10718542       6.75730765       3.02679635  F       0.00000000       0.00000000       0.00000000
O        6.10718028       9.45628983       6.10801454  F       0.00000000       0.00000000       0.00000000
O        6.10718760       6.76124043       6.10802244  F       0.00000000       0.00000000       0.00000000
O        9.16231990       6.76043512       9.16839999  T       0.00000000       0.00000000       0.00000000
O        9.16202143       9.45829996       9.16943075  T       0.00000000       0.00000000       0.00000000
O        9.16078073       6.76123572       6.10801818  F       0.00000000       0.00000000       0.00000000
O        9.16078059       9.45627785       6.10801483  F       0.00000000       0.00000000       0.00000000
O        9.16077813       6.75730765       3.02679635  F       0.00000000       0.00000000       0.00000000
O        9.16077813       9.46023072       3.02679635  F       0.00000000       0.00000000       0.00000000
O        9.16060724       1.30121211      12.17935276  T       0.00000000       0.00000000       0.00000000
O        9.16426745       4.09780975      12.18152600  T       0.00000000       0.00000000       0.00000000
O        3.05824680       4.09903958      12.16484252  T       0.00000000       0.00000000       0.00000000
O        9.16171118       1.35661940       9.17379217  T       0.00000000       0.00000000       0.00000000
O        9.16077827       1.35539012       6.10801450  F       0.00000000       0.00000000       0.00000000
O        9.16078421       4.05045012       6.10800209  F       0.00000000       0.00000000       0.00000000
O        9.16077813       1.35146153       3.02679635  F       0.00000000       0.00000000       0.00000000
O        9.16077813       4.05438459       3.02679635  F       0.00000000       0.00000000       0.00000000
O        6.11041556       6.70869623      12.14953219  T       0.00000000       0.00000000       0.00000000
O        6.10652766       9.50379341      12.15867314  T       0.00000000       0.00000000       0.00000000
O        6.10922719       6.75553095       9.16011061  T       0.00000000       0.00000000       0.00000000
O        6.10938092       9.45891840       9.16019101  T       0.00000000       0.00000000       0.00000000
O        9.16259671       4.04930440       9.17500517  T       0.00000000       0.00000000       0.00000000
O        3.05310871       1.35213430       9.16347238  T       0.00000000       0.00000000       0.00000000
O        9.16329534       6.70741326      12.16771924  T       0.00000000       0.00000000       0.00000000
O       12.21562212       9.50567752      12.16417795  T       0.00000000       0.00000000       0.00000000
O        0.00000000       6.75730765       3.02679635  F       0.00000000       0.00000000       0.00000000
O        3.05386395       4.05281500       9.16367678  T       0.00000000       0.00000000       0.00000000
O        0.00089905       1.30231628      12.17025671  T       0.00000000       0.00000000       0.00000000
O        0.00000951       9.45630243       6.10801529  F       0.00000000       0.00000000       0.00000000
O       12.21577024       4.09821851      12.17301817  T       0.00000000       0.00000000       0.00000000
O        0.00000182       6.76124509       6.10800952  F       0.00000000       0.00000000       0.00000000
O       -0.00166628       9.45738179       9.16511263  T       0.00000000       0.00000000       0.00000000
O       -0.00007233       1.35370888       9.16901488  T       0.00000000       0.00000000       0.00000000
O        0.00004918       6.75699108       9.16559666  T       0.00000000       0.00000000       0.00000000
O       12.21369886       4.05024930       9.17008899  T       0.00000000       0.00000000       0.00000000
O       12.21529084       6.70878332      12.16397047  T       0.00000000       0.00000000       0.00000000
O        0.00000448       1.35539672       6.10801283  F       0.00000000       0.00000000       0.00000000
O        0.00000331       4.05045002       6.10801189  F       0.00000000       0.00000000       0.00000000
O        3.05359271       4.05438459       3.02679635  F       0.00000000       0.00000000       0.00000000
O        0.00000000       9.46023072       3.02679635  F       0.00000000       0.00000000       0.00000000
O        3.05359105       4.05044320       6.10802763  F       0.00000000       0.00000000       0.00000000
O        3.05359271       1.35146153       3.02679635  F       0.00000000       0.00000000       0.00000000
O        3.05359652       1.35540103       6.10801944  F       0.00000000       0.00000000       0.00000000
O        0.00000000       4.05438459       3.02679635  F       0.00000000       0.00000000       0.00000000
O        0.00000000       1.35146153       3.02679635  F       0.00000000       0.00000000       0.00000000
Pd       7.63840685       5.40112382      12.01987799  T       0.00000000       0.00000000       0.00000000
Pd      10.68959102       5.40252532      12.02353384  T       0.00000000       0.00000000       0.00000000
Pd       0.00000000       8.10876919       1.50000000  F       0.00000000       0.00000000       0.00000000
Pd       9.16302159       8.10818197      10.76719561  T       0.00000000       0.00000000       0.00000000
Pd       1.52679635       0.00000000       3.02679635  F       0.00000000       0.00000000       0.00000000
Pd       9.16077813       2.70292306       1.50000000  F       0.00000000       0.00000000       0.00000000
Pd      10.68757448       0.00000000       3.02679635  F       0.00000000       0.00000000       0.00000000
Pd      10.68752032       5.40426816       9.14048738  T       0.00000000       0.00000000       0.00000000
Pd       1.52675011      -0.00150982      12.01166763  T       0.00000000       0.00000000       0.00000000
Pd       9.16077900       2.70292450       4.56559698  F       0.00000000       0.00000000       0.00000000
Pd      10.68756280      10.81168006       6.11657659  F       0.00000000       0.00000000       0.00000000
Pd       9.16077776       8.10875607       4.56559406  F       0.00000000       0.00000000       0.00000000
Pd       1.52678677       0.00000067       6.11658292  F       0.00000000       0.00000000       0.00000000
Pd       9.16186038       8.10948498       7.65152773  T       0.00000000       0.00000000       0.00000000
Pd       9.16180264       2.70331712       7.65433953  T       0.00000000       0.00000000       0.00000000
Pd      10.68720756       0.00127547       9.14013215  T       0.00000000       0.00000000       0.00000000
Pd       0.00000135       2.70292705       4.56560641  F       0.00000000       0.00000000       0.00000000
Pd       1.52564123      10.81070670       9.13305941  T       0.00000000       0.00000000       0.00000000
Pd       9.16279489       2.70100606      10.77688428  T       0.00000000       0.00000000       0.00000000
Pd       6.10982760       8.10841826      10.75305540  T       0.00000000       0.00000000       0.00000000
Pd      10.68761594      10.80957035      12.02407929  T       0.00000000       0.00000000       0.00000000
Pd      -0.00099902       2.70270402       7.65198556  T       0.00000000       0.00000000       0.00000000
Pd      10.68757280       5.40584816       6.11657764  F       0.00000000       0.00000000       0.00000000
Pd       9.16077813       8.10876919       1.50000000  F       0.00000000       0.00000000       0.00000000
Pd      10.68757448       5.40584612       3.02679635  F       0.00000000       0.00000000       0.00000000
Pd      12.21493583       2.70107166      10.76878769  T       0.00000000       0.00000000       0.00000000
Pd       4.58054381      -0.00146423       9.13077027  T       0.00000000       0.00000000       0.00000000
Pd       7.63397856       5.40585179       6.11657833  F       0.00000000       0.00000000       0.00000000
Pd       7.63701644       5.40374214       9.13796605  T       0.00000000       0.00000000       0.00000000
Pd       4.58611342       5.40282915      11.99530038  T       0.00000000       0.00000000       0.00000000
Pd       3.05321534       8.10907126      10.75335603  T       0.00000000       0.00000000       0.00000000
Pd       4.58038906       0.00000000       3.02679635  F       0.00000000       0.00000000       0.00000000
Pd       4.58243001       5.40277011       9.13122948  T       0.00000000       0.00000000       0.00000000
Pd       3.05303236       8.10614253       7.64725987  T       0.00000000       0.00000000       0.00000000
Pd       3.05359494       2.70292824       4.56560681  F       0.00000000       0.00000000       0.00000000
Pd       3.05359271       2.70292306       1.50000000  F       0.00000000       0.00000000       0.00000000
Pd       4.58039501       5.40584640       6.11658908  F       0.00000000       0.00000000       0.00000000
Pd       4.58040505      10.81168838       6.11658203  F       0.00000000       0.00000000       0.00000000
Pd       4.58038906       5.40584612       3.02679635  F       0.00000000       0.00000000       0.00000000
Pd       3.05359271       8.10876919       1.50000000  F       0.00000000       0.00000000       0.00000000
Pd       3.05307072       2.70290227       7.64898016  T       0.00000000       0.00000000       0.00000000
Pd       4.58092110      -0.00275758      12.00806750  T       0.00000000       0.00000000       0.00000000
Pd       3.05358090       2.70306078      10.75873970  T       0.00000000       0.00000000       0.00000000
Pd       3.05359569       8.10876742       4.56559865  F       0.00000000       0.00000000       0.00000000
Pd       6.10718542       2.70292306       1.50000000  F       0.00000000       0.00000000       0.00000000
Pd       7.63398177       0.00000000       3.02679635  F       0.00000000       0.00000000       0.00000000
Pd       1.52941327       5.40313102      12.01867986  T       0.00000000       0.00000000       0.00000000
Pd       6.10889879       8.10773220       7.64714457  T       0.00000000       0.00000000       0.00000000
Pd       0.00000079       8.10876600       4.56559869  F       0.00000000       0.00000000       0.00000000
Pd       6.10718651       8.10875952       4.56558968  F       0.00000000       0.00000000       0.00000000
Pd       1.52680247       5.40584247       6.11658534  F       0.00000000       0.00000000       0.00000000
Pd       7.63398177       5.40584612       3.02679635  F       0.00000000       0.00000000       0.00000000
Pd       6.10718542       8.10876919       1.50000000  F       0.00000000       0.00000000       0.00000000
Pd      -0.00111509       8.10770833       7.64989827  T       0.00000000       0.00000000       0.00000000
Pd       7.63484334      10.80828419      12.02039637  T       0.00000000       0.00000000       0.00000000
Pd       6.10888512       2.69829080      10.76158799  T       0.00000000       0.00000000       0.00000000
Pd       1.52619469       5.40317768       9.13538083  T       0.00000000       0.00000000       0.00000000
Pd       7.63617161       0.00103119       9.13745111  T       0.00000000       0.00000000       0.00000000
Pd       6.10876361       2.70227510       7.64970043  T       0.00000000       0.00000000       0.00000000
Pd      12.21369890       8.10711953      10.76208859  T       0.00000000       0.00000000       0.00000000
Pd       7.63399583      10.81167532       6.11657540  F       0.00000000       0.00000000       0.00000000
Pd       6.10718592       2.70292523       4.56558724  F       0.00000000       0.00000000       0.00000000
Pd       1.52679635       5.40584612       3.02679635  F       0.00000000       0.00000000       0.00000000
Pd       0.00000000       2.70292306       1.50000000  F       0.00000000       0.00000000       0.00000000
C        3.19297134       6.03173994      15.23337100  T       0.00000000       0.00000000       0.00000000
O        4.33745242       6.10963557      15.22696038  T       0.00000000       0.00000000       0.00000000
