130
Lattice="12.21437083684855 0.0 7e-16 1.7e-15 10.811692246786171 7e-16 0.0 0.0 30.687574482242482" Properties=species:S:1:pos:R:3:move_mask:L:1:momenta:R:3 adsorbate_info="_JSON {\"site\": {\"coordinates\": [8.651846384670431, 8.741218252944419e-06, 12.069814618560509], \"connectivity\": 3, \"topology\": [9, 28, 118], \"n_vector\": [-0.04567264782038375, 0.06665552432427699, 0.996730179295345], \"h_vector\": [-0.7621708099826876, -0.6435253443790898, -0.07050381232321969], \"site_formula\": {\"O\": 2, \"Pd\": 1}}, \"smiles\": \"Cl[C]=O\", \"mdf\": 2.401080412067915, \"adsorbate_formula\": \"CO\"}" mace_E=-687.9160574339531 converged=T n_steps=59 d_min=3.005623567821425 site_type=atop dE_rel_meV=0 original_idx=93 rank=68 E_MACE=-687.8547890675562 pbc="T T T"
O        3.05098177       6.71543561      12.17465885  T       0.00000000       0.00000000       0.00000000
O        6.09481388       1.31116062      12.15625968  T       0.00000000       0.00000000       0.00000000
O        6.10498723       4.10747565      12.15987631  T       0.00000000       0.00000000       0.00000000
O        6.10224106       1.35834075       9.16445908  T       0.00000000       0.00000000       0.00000000
O        6.10568059       4.05848059       9.16130559  T       0.00000000       0.00000000       0.00000000
O        6.10718343       1.35539432       6.10801899  F       0.00000000       0.00000000       0.00000000
O        6.10718534       4.05045008       6.10801162  F       0.00000000       0.00000000       0.00000000
O        6.10718542       1.35146153       3.02679635  F       0.00000000       0.00000000       0.00000000
O        6.10718542       4.05438459       3.02679635  F       0.00000000       0.00000000       0.00000000
O        9.13485089       9.50510845      12.16869696  T       0.00000000       0.00000000       0.00000000
O        3.04199519       9.51212371      12.17668418  T       0.00000000       0.00000000       0.00000000
O        3.05202523       6.76872278       9.17192875  T       0.00000000       0.00000000       0.00000000
O        3.04903774       9.46148402       9.17056896  T       0.00000000       0.00000000       0.00000000
O        3.05359341       6.76124998       6.10801980  F       0.00000000       0.00000000       0.00000000
O        3.05359360       9.45629444       6.10802097  F       0.00000000       0.00000000       0.00000000
O        3.05359271       6.75730765       3.02679635  F       0.00000000       0.00000000       0.00000000
O        3.05359271       9.46023072       3.02679635  F       0.00000000       0.00000000       0.00000000
O        3.04266369       1.30979391      12.15880287  T       0.00000000       0.00000000       0.00000000
O        6.10718542       9.46023072       3.02679635  F       0.00000000       0.00000000       0.00000000
O        6.10718542       6.75730765       3.02679635  F       0.00000000       0.00000000       0.00000000
O        6.10718028       9.45628983       6.10801454  F       0.00000000       0.00000000       0.00000000
O        6.10718760       6.76124043       6.10802244  F       0.00000000       0.00000000       0.00000000
O        9.15908930       6.77045681       9.16573152  T       0.00000000       0.00000000       0.00000000
O        9.15650587       9.46644619       9.16367965  T       0.00000000       0.00000000       0.00000000
O        9.16078073       6.76123572       6.10801818  F       0.00000000       0.00000000       0.00000000
O        9.16078059       9.45627785       6.10801483  F       0.00000000       0.00000000       0.00000000
O        9.16077813       6.75730765       3.02679635  F       0.00000000       0.00000000       0.00000000
O        9.16077813       9.46023072       3.02679635  F       0.00000000       0.00000000       0.00000000
O        9.14165054       1.32172963      12.13567705  T       0.00000000       0.00000000       0.00000000
O        9.15803711       4.11534932      12.14842980  T       0.00000000       0.00000000       0.00000000
O        3.04732463       4.10695605      12.16209754  T       0.00000000       0.00000000       0.00000000
O        9.15924375       1.36085177       9.16161989  T       0.00000000       0.00000000       0.00000000
O        9.16077827       1.35539012       6.10801450  F       0.00000000       0.00000000       0.00000000
O        9.16078421       4.05045012       6.10800209  F       0.00000000       0.00000000       0.00000000
O        9.16077813       1.35146153       3.02679635  F       0.00000000       0.00000000       0.00000000
O        9.16077813       4.05438459       3.02679635  F       0.00000000       0.00000000       0.00000000
O        6.10053881       6.71547737      12.17215592  T       0.00000000       0.00000000       0.00000000
O        6.09531611       9.51179579      12.17562745  T       0.00000000       0.00000000       0.00000000
O        6.10440144       6.76862995       9.17021912  T       0.00000000       0.00000000       0.00000000
O        6.10386597       9.46147513       9.16924856  T       0.00000000       0.00000000       0.00000000
O        9.16015653       4.06440553       9.15528291  T       0.00000000       0.00000000       0.00000000
O        3.05023134       1.35816131       9.16628057  T       0.00000000       0.00000000       0.00000000
O        9.15270934       6.72337084      12.16350187  T       0.00000000       0.00000000       0.00000000
O       12.21499473       9.50339937      12.18083074  T       0.00000000       0.00000000       0.00000000
O        0.00000000       6.75730765       3.02679635  F       0.00000000       0.00000000       0.00000000
O        3.05137194       4.05770812       9.16362523  T       0.00000000       0.00000000       0.00000000
O       -0.00818897       1.32281058      12.16216290  T       0.00000000       0.00000000       0.00000000
O        0.00000951       9.45630243       6.10801529  F       0.00000000       0.00000000       0.00000000
O       12.20711254       4.11528650      12.15973120  T       0.00000000       0.00000000       0.00000000
O        0.00000182       6.76124509       6.10800952  F       0.00000000       0.00000000       0.00000000
O       -0.00274484       9.46532395       9.16879289  T       0.00000000       0.00000000       0.00000000
O       -0.00438009       1.36235587       9.16911892  T       0.00000000       0.00000000       0.00000000
O        0.00119425       6.77167656       9.17164896  T       0.00000000       0.00000000       0.00000000
O       12.21319887       4.06094769       9.16161119  T       0.00000000       0.00000000       0.00000000
O       12.21423790       6.72289521      12.17046396  T       0.00000000       0.00000000       0.00000000
O        0.00000448       1.35539672       6.10801283  F       0.00000000       0.00000000       0.00000000
O        0.00000331       4.05045002       6.10801189  F       0.00000000       0.00000000       0.00000000
O        3.05359271       4.05438459       3.02679635  F       0.00000000       0.00000000       0.00000000
O        0.00000000       9.46023072       3.02679635  F       0.00000000       0.00000000       0.00000000
O        3.05359105       4.05044320       6.10802763  F       0.00000000       0.00000000       0.00000000
O        3.05359271       1.35146153       3.02679635  F       0.00000000       0.00000000       0.00000000
O        3.05359652       1.35540103       6.10801944  F       0.00000000       0.00000000       0.00000000
O        0.00000000       4.05438459       3.02679635  F       0.00000000       0.00000000       0.00000000
O        0.00000000       1.35146153       3.02679635  F       0.00000000       0.00000000       0.00000000
Pd       7.62901488       5.41615688      12.01503213  T       0.00000000       0.00000000       0.00000000
Pd      10.68330788       5.42289155      12.01519574  T       0.00000000       0.00000000       0.00000000
Pd       0.00000000       8.10876919       1.50000000  F       0.00000000       0.00000000       0.00000000
Pd       9.14730483       8.11853790      10.76162470  T       0.00000000       0.00000000       0.00000000
Pd       1.52679635       0.00000000       3.02679635  F       0.00000000       0.00000000       0.00000000
Pd       9.16077813       2.70292306       1.50000000  F       0.00000000       0.00000000       0.00000000
Pd      10.68757448       0.00000000       3.02679635  F       0.00000000       0.00000000       0.00000000
Pd      10.68759432       5.41835581       9.13647047  T       0.00000000       0.00000000       0.00000000
Pd       1.51497440       0.00474917      12.02122341  T       0.00000000       0.00000000       0.00000000
Pd       9.16077900       2.70292450       4.56559698  F       0.00000000       0.00000000       0.00000000
Pd      10.68756280      10.81168006       6.11657659  F       0.00000000       0.00000000       0.00000000
Pd       9.16077776       8.10875607       4.56559406  F       0.00000000       0.00000000       0.00000000
Pd       1.52678677       0.00000067       6.11658292  F       0.00000000       0.00000000       0.00000000
Pd       9.16128829       8.11399684       7.64748770  T       0.00000000       0.00000000       0.00000000
Pd       9.16170962       2.70586423       7.64434835  T       0.00000000       0.00000000       0.00000000
Pd      10.68489088       0.00770223       9.14444219  T       0.00000000       0.00000000       0.00000000
Pd       0.00000135       2.70292705       4.56560641  F       0.00000000       0.00000000       0.00000000
Pd       1.52349001      10.81817723       9.14009017  T       0.00000000       0.00000000       0.00000000
Pd       9.15547629       2.71968232      10.74396492  T       0.00000000       0.00000000       0.00000000
Pd       6.10037772       8.11535427      10.77240115  T       0.00000000       0.00000000       0.00000000
Pd      10.67596586      10.81267318      12.04363795  T       0.00000000       0.00000000       0.00000000
Pd      -0.00241707       2.70485913       7.64772642  T       0.00000000       0.00000000       0.00000000
Pd      10.68757280       5.40584816       6.11657764  F       0.00000000       0.00000000       0.00000000
Pd       9.16077813       8.10876919       1.50000000  F       0.00000000       0.00000000       0.00000000
Pd      10.68757448       5.40584612       3.02679635  F       0.00000000       0.00000000       0.00000000
Pd      12.20806431       2.71650137      10.75868980  T       0.00000000       0.00000000       0.00000000
Pd       4.57636562       0.00346648       9.13899720  T       0.00000000       0.00000000       0.00000000
Pd       7.63397856       5.40585179       6.11657833  F       0.00000000       0.00000000       0.00000000
Pd       7.63148586       5.41626797       9.13288578  T       0.00000000       0.00000000       0.00000000
Pd       4.57581651       5.40953879      12.01727858  T       0.00000000       0.00000000       0.00000000
Pd       3.04881402       8.11541629      10.77387976  T       0.00000000       0.00000000       0.00000000
Pd       4.58038906       0.00000000       3.02679635  F       0.00000000       0.00000000       0.00000000
Pd       4.57833383       5.41245516       9.13664063  T       0.00000000       0.00000000       0.00000000
Pd       3.05145956       8.11197536       7.65202772  T       0.00000000       0.00000000       0.00000000
Pd       3.05359494       2.70292824       4.56560681  F       0.00000000       0.00000000       0.00000000
Pd       3.05359271       2.70292306       1.50000000  F       0.00000000       0.00000000       0.00000000
Pd       4.58039501       5.40584640       6.11658908  F       0.00000000       0.00000000       0.00000000
Pd       4.58040505      10.81168838       6.11658203  F       0.00000000       0.00000000       0.00000000
Pd       4.58038906       5.40584612       3.02679635  F       0.00000000       0.00000000       0.00000000
Pd       3.05359271       8.10876919       1.50000000  F       0.00000000       0.00000000       0.00000000
Pd       3.05154129       2.70500204       7.64902731  T       0.00000000       0.00000000       0.00000000
Pd       4.56883572       0.00684038      12.01801384  T       0.00000000       0.00000000       0.00000000
Pd       3.04683215       2.70992099      10.76078657  T       0.00000000       0.00000000       0.00000000
Pd       3.05359569       8.10876742       4.56559865  F       0.00000000       0.00000000       0.00000000
Pd       6.10718542       2.70292306       1.50000000  F       0.00000000       0.00000000       0.00000000
Pd       7.63398177       0.00000000       3.02679635  F       0.00000000       0.00000000       0.00000000
Pd       1.52253045       5.41505811      12.02023633  T       0.00000000       0.00000000       0.00000000
Pd       6.10576568       8.11217494       7.65135963  T       0.00000000       0.00000000       0.00000000
Pd       0.00000079       8.10876600       4.56559869  F       0.00000000       0.00000000       0.00000000
Pd       6.10718651       8.10875952       4.56558968  F       0.00000000       0.00000000       0.00000000
Pd       1.52680247       5.40584247       6.11658534  F       0.00000000       0.00000000       0.00000000
Pd       7.63398177       5.40584612       3.02679635  F       0.00000000       0.00000000       0.00000000
Pd       6.10718542       8.10876919       1.50000000  F       0.00000000       0.00000000       0.00000000
Pd      -0.00155382       8.11424930       7.65043736  T       0.00000000       0.00000000       0.00000000
Pd       7.61931630      10.81573270      12.00884792  T       0.00000000       0.00000000       0.00000000
Pd       6.10305809       2.71061523      10.75795138  T       0.00000000       0.00000000       0.00000000
Pd       1.52625891       5.41491973       9.13735436  T       0.00000000       0.00000000       0.00000000
Pd       7.62926901       0.00675360       9.13424779  T       0.00000000       0.00000000       0.00000000
Pd       6.10590993       2.70520385       7.64795616  T       0.00000000       0.00000000       0.00000000
Pd      12.21741302       8.12007529      10.76995747  T       0.00000000       0.00000000       0.00000000
Pd       7.63399583      10.81167532       6.11657540  F       0.00000000       0.00000000       0.00000000
Pd       6.10718592       2.70292523       4.56558724  F       0.00000000       0.00000000       0.00000000
Pd       1.52679635       5.40584612       3.02679635  F       0.00000000       0.00000000       0.00000000
Pd       0.00000000       2.70292306       1.50000000  F       0.00000000       0.00000000       0.00000000
C       10.54001498       0.27290813      14.49094849  T       0.00000000       0.00000000       0.00000000
O       10.27655665       1.26783379      15.00703562  T       0.00000000       0.00000000       0.00000000
