130
Lattice="12.21437083684855 0.0 7e-16 1.7e-15 10.811692246786171 7e-16 0.0 0.0 30.687574482242482" Properties=species:S:1:pos:R:3:move_mask:L:1:momenta:R:3 adsorbate_info="_JSON {\"site\": {\"coordinates\": [1.5267491358454017, 4.116741857678053, 12.116894665885143], \"connectivity\": 2, \"topology\": [30, 48], \"n_vector\": [-0.00036415459587211114, -0.12570146514236977, 0.9920680465837471], \"h_vector\": [-0.9999999998168455, -1.6174120644192608e-05, 1.0232630087667229e-05], \"site_formula\": {\"O\": 2}}, \"smiles\": \"Cl[C]=O\", \"mdf\": 2.2372481576397463, \"adsorbate_formula\": \"CO\"}" mace_E=-687.8544398760166 converged=T n_steps=29 d_min=3.2342252908180105 site_type=atop dE_rel_meV=0 original_idx=12 rank=130 E_MACE=-687.828065582308 pbc="T T T"
O        3.04474377       6.72053366      12.16987393  T       0.00000000       0.00000000       0.00000000
O        6.10288647       1.31147439      12.16633126  T       0.00000000       0.00000000       0.00000000
O        6.09816692       4.10910646      12.16274396  T       0.00000000       0.00000000       0.00000000
O        6.10817977       1.35671605       9.16517850  T       0.00000000       0.00000000       0.00000000
O        6.10328184       4.05730500       9.16436108  T       0.00000000       0.00000000       0.00000000
O        6.10718343       1.35539432       6.10801899  F       0.00000000       0.00000000       0.00000000
O        6.10718534       4.05045008       6.10801162  F       0.00000000       0.00000000       0.00000000
O        6.10718542       1.35146153       3.02679635  F       0.00000000       0.00000000       0.00000000
O        6.10718542       4.05438459       3.02679635  F       0.00000000       0.00000000       0.00000000
O        9.15671569       9.51539089      12.17771174  T       0.00000000       0.00000000       0.00000000
O        3.04891491       9.51691700      12.15617697  T       0.00000000       0.00000000       0.00000000
O        3.05037952       6.76284662       9.16765243  T       0.00000000       0.00000000       0.00000000
O        3.05249464       9.46243521       9.16456032  T       0.00000000       0.00000000       0.00000000
O        3.05359341       6.76124998       6.10801980  F       0.00000000       0.00000000       0.00000000
O        3.05359360       9.45629444       6.10802097  F       0.00000000       0.00000000       0.00000000
O        3.05359271       6.75730765       3.02679635  F       0.00000000       0.00000000       0.00000000
O        3.05359271       9.46023072       3.02679635  F       0.00000000       0.00000000       0.00000000
O        3.04971543       1.31397426      12.16235863  T       0.00000000       0.00000000       0.00000000
O        6.10718542       9.46023072       3.02679635  F       0.00000000       0.00000000       0.00000000
O        6.10718542       6.75730765       3.02679635  F       0.00000000       0.00000000       0.00000000
O        6.10718028       9.45628983       6.10801454  F       0.00000000       0.00000000       0.00000000
O        6.10718760       6.76124043       6.10802244  F       0.00000000       0.00000000       0.00000000
O        9.15707602       6.76364107       9.17656862  T       0.00000000       0.00000000       0.00000000
O        9.16012128       9.45719411       9.17416363  T       0.00000000       0.00000000       0.00000000
O        9.16078073       6.76123572       6.10801818  F       0.00000000       0.00000000       0.00000000
O        9.16078059       9.45627785       6.10801483  F       0.00000000       0.00000000       0.00000000
O        9.16077813       6.75730765       3.02679635  F       0.00000000       0.00000000       0.00000000
O        9.16077813       9.46023072       3.02679635  F       0.00000000       0.00000000       0.00000000
O        9.15676489       1.31363094      12.17308205  T       0.00000000       0.00000000       0.00000000
O        9.15102544       4.10975838      12.16455799  T       0.00000000       0.00000000       0.00000000
O        3.04615132       4.10715965      12.14631719  T       0.00000000       0.00000000       0.00000000
O        9.16035576       1.35516323       9.17064655  T       0.00000000       0.00000000       0.00000000
O        9.16077827       1.35539012       6.10801450  F       0.00000000       0.00000000       0.00000000
O        9.16078421       4.05045012       6.10800209  F       0.00000000       0.00000000       0.00000000
O        9.16077813       1.35146153       3.02679635  F       0.00000000       0.00000000       0.00000000
O        9.16077813       4.05438459       3.02679635  F       0.00000000       0.00000000       0.00000000
O        6.09747824       6.72254875      12.17706054  T       0.00000000       0.00000000       0.00000000
O        6.10327354       9.51499376      12.16970145  T       0.00000000       0.00000000       0.00000000
O        6.10488143       6.76496783       9.17119985  T       0.00000000       0.00000000       0.00000000
O        6.10670393       9.46084543       9.16791368  T       0.00000000       0.00000000       0.00000000
O        9.15653706       4.05429307       9.16690188  T       0.00000000       0.00000000       0.00000000
O        3.05274462       1.35673440       9.16198182  T       0.00000000       0.00000000       0.00000000
O        9.15286306       6.71798182      12.18139144  T       0.00000000       0.00000000       0.00000000
O       12.21193139       9.51664249      12.16958464  T       0.00000000       0.00000000       0.00000000
O        0.00000000       6.75730765       3.02679635  F       0.00000000       0.00000000       0.00000000
O        3.05136107       4.05898904       9.15912608  T       0.00000000       0.00000000       0.00000000
O       -0.00482417       1.31353815      12.16727672  T       0.00000000       0.00000000       0.00000000
O        0.00000951       9.45630243       6.10801529  F       0.00000000       0.00000000       0.00000000
O       12.20774260       4.10821818      12.16758869  T       0.00000000       0.00000000       0.00000000
O        0.00000182       6.76124509       6.10800952  F       0.00000000       0.00000000       0.00000000
O        0.00019149       9.46051786       9.16967656  T       0.00000000       0.00000000       0.00000000
O       -0.00354885       1.35829060       9.16745806  T       0.00000000       0.00000000       0.00000000
O       -0.00378306       6.76482527       9.17343202  T       0.00000000       0.00000000       0.00000000
O       12.21103069       4.05759301       9.16589870  T       0.00000000       0.00000000       0.00000000
O       12.20698088       6.71889667      12.17919243  T       0.00000000       0.00000000       0.00000000
O        0.00000448       1.35539672       6.10801283  F       0.00000000       0.00000000       0.00000000
O        0.00000331       4.05045002       6.10801189  F       0.00000000       0.00000000       0.00000000
O        3.05359271       4.05438459       3.02679635  F       0.00000000       0.00000000       0.00000000
O        0.00000000       9.46023072       3.02679635  F       0.00000000       0.00000000       0.00000000
O        3.05359105       4.05044320       6.10802763  F       0.00000000       0.00000000       0.00000000
O        3.05359271       1.35146153       3.02679635  F       0.00000000       0.00000000       0.00000000
O        3.05359652       1.35540103       6.10801944  F       0.00000000       0.00000000       0.00000000
O        0.00000000       4.05438459       3.02679635  F       0.00000000       0.00000000       0.00000000
O        0.00000000       1.35146153       3.02679635  F       0.00000000       0.00000000       0.00000000
Pd       7.62480866       5.41615327      12.02307689  T       0.00000000       0.00000000       0.00000000
Pd      10.67930570       5.41359197      12.02398798  T       0.00000000       0.00000000       0.00000000
Pd       0.00000000       8.10876919       1.50000000  F       0.00000000       0.00000000       0.00000000
Pd       9.15652651       8.11404019      10.77634615  T       0.00000000       0.00000000       0.00000000
Pd       1.52679635       0.00000000       3.02679635  F       0.00000000       0.00000000       0.00000000
Pd       9.16077813       2.70292306       1.50000000  F       0.00000000       0.00000000       0.00000000
Pd      10.68757448       0.00000000       3.02679635  F       0.00000000       0.00000000       0.00000000
Pd      10.68351705       5.41018419       9.14137428  T       0.00000000       0.00000000       0.00000000
Pd       1.52254780       0.01014995      12.01356259  T       0.00000000       0.00000000       0.00000000
Pd       9.16077900       2.70292450       4.56559698  F       0.00000000       0.00000000       0.00000000
Pd      10.68756280      10.81168006       6.11657659  F       0.00000000       0.00000000       0.00000000
Pd       9.16077776       8.10875607       4.56559406  F       0.00000000       0.00000000       0.00000000
Pd       1.52678677       0.00000067       6.11658292  F       0.00000000       0.00000000       0.00000000
Pd       9.15996352       8.10895459       7.65495723  T       0.00000000       0.00000000       0.00000000
Pd       9.16002432       2.70298635       7.65144689  T       0.00000000       0.00000000       0.00000000
Pd      10.68651216       0.00098674       9.14136345  T       0.00000000       0.00000000       0.00000000
Pd       0.00000135       2.70292705       4.56560641  F       0.00000000       0.00000000       0.00000000
Pd       1.52484784      10.81621630       9.13458610  T       0.00000000       0.00000000       0.00000000
Pd       9.15484211       2.70777124      10.76561801  T       0.00000000       0.00000000       0.00000000
Pd       6.10213220       8.11595195      10.76819904  T       0.00000000       0.00000000       0.00000000
Pd      10.68317235      10.81995027      12.02274445  T       0.00000000       0.00000000       0.00000000
Pd      -0.00200916       2.70542301       7.65029342  T       0.00000000       0.00000000       0.00000000
Pd      10.68757280       5.40584816       6.11657764  F       0.00000000       0.00000000       0.00000000
Pd       9.16077813       8.10876919       1.50000000  F       0.00000000       0.00000000       0.00000000
Pd      10.68757448       5.40584612       3.02679635  F       0.00000000       0.00000000       0.00000000
Pd      12.20875684       2.71049615      10.76340087  T       0.00000000       0.00000000       0.00000000
Pd       4.58062747       0.00363105       9.13333815  T       0.00000000       0.00000000       0.00000000
Pd       7.63397856       5.40585179       6.11657833  F       0.00000000       0.00000000       0.00000000
Pd       7.63060905       5.41006469       9.13972841  T       0.00000000       0.00000000       0.00000000
Pd       4.57255923       5.41703088      12.01036503  T       0.00000000       0.00000000       0.00000000
Pd       3.04870027       8.11351859      10.76073520  T       0.00000000       0.00000000       0.00000000
Pd       4.58038906       0.00000000       3.02679635  F       0.00000000       0.00000000       0.00000000
Pd       4.57794655       5.41182112       9.13447177  T       0.00000000       0.00000000       0.00000000
Pd       3.05155591       8.11030362       7.65010048  T       0.00000000       0.00000000       0.00000000
Pd       3.05359494       2.70292824       4.56560681  F       0.00000000       0.00000000       0.00000000
Pd       3.05359271       2.70292306       1.50000000  F       0.00000000       0.00000000       0.00000000
Pd       4.58039501       5.40584640       6.11658908  F       0.00000000       0.00000000       0.00000000
Pd       4.58040505      10.81168838       6.11658203  F       0.00000000       0.00000000       0.00000000
Pd       4.58038906       5.40584612       3.02679635  F       0.00000000       0.00000000       0.00000000
Pd       3.05359271       8.10876919       1.50000000  F       0.00000000       0.00000000       0.00000000
Pd       3.05313124       2.70614731       7.64710765  T       0.00000000       0.00000000       0.00000000
Pd       4.57688133       0.00832782      12.01399993  T       0.00000000       0.00000000       0.00000000
Pd       3.05038857       2.70586365      10.75402888  T       0.00000000       0.00000000       0.00000000
Pd       3.05359569       8.10876742       4.56559865  F       0.00000000       0.00000000       0.00000000
Pd       6.10718542       2.70292306       1.50000000  F       0.00000000       0.00000000       0.00000000
Pd       7.63398177       0.00000000       3.02679635  F       0.00000000       0.00000000       0.00000000
Pd       1.51865043       5.41519273      12.02187556  T       0.00000000       0.00000000       0.00000000
Pd       6.10709004       8.11024013       7.65161710  T       0.00000000       0.00000000       0.00000000
Pd       0.00000079       8.10876600       4.56559869  F       0.00000000       0.00000000       0.00000000
Pd       6.10718651       8.10875952       4.56558968  F       0.00000000       0.00000000       0.00000000
Pd       1.52680247       5.40584247       6.11658534  F       0.00000000       0.00000000       0.00000000
Pd       7.63398177       5.40584612       3.02679635  F       0.00000000       0.00000000       0.00000000
Pd       6.10718542       8.10876919       1.50000000  F       0.00000000       0.00000000       0.00000000
Pd      -0.00129287       8.11025017       7.65282805  T       0.00000000       0.00000000       0.00000000
Pd       7.63044276      10.81981236      12.02314110  T       0.00000000       0.00000000       0.00000000
Pd       6.10415009       2.70816345      10.76225398  T       0.00000000       0.00000000       0.00000000
Pd       1.52300287       5.41139277       9.13625801  T       0.00000000       0.00000000       0.00000000
Pd       7.63458944       0.00113897       9.13928919  T       0.00000000       0.00000000       0.00000000
Pd       6.10689663       2.70517791       7.64950354  T       0.00000000       0.00000000       0.00000000
Pd      12.21216436       8.11408155      10.77114860  T       0.00000000       0.00000000       0.00000000
Pd       7.63399583      10.81167532       6.11657540  F       0.00000000       0.00000000       0.00000000
Pd       6.10718592       2.70292523       4.56558724  F       0.00000000       0.00000000       0.00000000
Pd       1.52679635       5.40584612       3.02679635  F       0.00000000       0.00000000       0.00000000
Pd       0.00000000       2.70292306       1.50000000  F       0.00000000       0.00000000       0.00000000
C        3.88420349       3.76687615      15.02350965  T       0.00000000       0.00000000       0.00000000
O        3.25462510       4.65385764      15.39311128  T       0.00000000       0.00000000       0.00000000
