130
Lattice="12.21437083684855 0.0 7e-16 1.7e-15 10.811692246786171 7e-16 0.0 0.0 30.687574482242482" Properties=species:S:1:pos:R:3:move_mask:L:1:momenta:R:3 adsorbate_info="_JSON {\"site\": {\"coordinates\": [12.214335661856207, 8.108759137860547, 12.116910989024984], \"connectivity\": 2, \"topology\": [43, 54], \"n_vector\": [0.11822736507759446, 0.00046867849597359123, 0.992986440233338], \"h_vector\": [4.255662715887953e-06, 0.9999999999768927, -5.301297239805672e-06], \"site_formula\": {\"O\": 2}}, \"smiles\": \"Cl[C]=O\", \"mdf\": 2.3111428490666253, \"adsorbate_formula\": \"CO\"}" mace_E=-687.8564146006917 converged=T n_steps=35 d_min=3.104107995874022 site_type=atop dE_rel_meV=0 original_idx=132 rank=131 E_MACE=-687.8257659741056 pbc="T T T"
O        3.06205217       6.71123726      12.16172886  T       0.00000000       0.00000000       0.00000000
O        6.11011119       1.30284752      12.17044947  T       0.00000000       0.00000000       0.00000000
O        6.11477112       4.09818608      12.16893734  T       0.00000000       0.00000000       0.00000000
O        6.10885412       1.35261049       9.16573424  T       0.00000000       0.00000000       0.00000000
O        6.11082080       4.04672904       9.16691581  T       0.00000000       0.00000000       0.00000000
O        6.10718343       1.35539432       6.10801899  F       0.00000000       0.00000000       0.00000000
O        6.10718534       4.05045008       6.10801162  F       0.00000000       0.00000000       0.00000000
O        6.10718542       1.35146153       3.02679635  F       0.00000000       0.00000000       0.00000000
O        6.10718542       4.05438459       3.02679635  F       0.00000000       0.00000000       0.00000000
O        9.16277001       9.50516736      12.16493534  T       0.00000000       0.00000000       0.00000000
O        3.05674527       9.50547448      12.16138767  T       0.00000000       0.00000000       0.00000000
O        3.05806008       6.75920739       9.16413753  T       0.00000000       0.00000000       0.00000000
O        3.05418702       9.45544730       9.16274175  T       0.00000000       0.00000000       0.00000000
O        3.05359341       6.76124998       6.10801980  F       0.00000000       0.00000000       0.00000000
O        3.05359360       9.45629444       6.10802097  F       0.00000000       0.00000000       0.00000000
O        3.05359271       6.75730765       3.02679635  F       0.00000000       0.00000000       0.00000000
O        3.05359271       9.46023072       3.02679635  F       0.00000000       0.00000000       0.00000000
O        3.05636987       1.30165374      12.15846147  T       0.00000000       0.00000000       0.00000000
O        6.10718542       9.46023072       3.02679635  F       0.00000000       0.00000000       0.00000000
O        6.10718542       6.75730765       3.02679635  F       0.00000000       0.00000000       0.00000000
O        6.10718028       9.45628983       6.10801454  F       0.00000000       0.00000000       0.00000000
O        6.10718760       6.76124043       6.10802244  F       0.00000000       0.00000000       0.00000000
O        9.16344082       6.75934789       9.16660382  T       0.00000000       0.00000000       0.00000000
O        9.16273221       9.45366805       9.16567912  T       0.00000000       0.00000000       0.00000000
O        9.16078073       6.76123572       6.10801818  F       0.00000000       0.00000000       0.00000000
O        9.16078059       9.45627785       6.10801483  F       0.00000000       0.00000000       0.00000000
O        9.16077813       6.75730765       3.02679635  F       0.00000000       0.00000000       0.00000000
O        9.16077813       9.46023072       3.02679635  F       0.00000000       0.00000000       0.00000000
O        9.16389793       1.30151533      12.16294324  T       0.00000000       0.00000000       0.00000000
O        9.16711737       4.09733139      12.16745853  T       0.00000000       0.00000000       0.00000000
O        3.06128235       4.09715822      12.16218395  T       0.00000000       0.00000000       0.00000000
O        9.16265113       1.35370664       9.16359240  T       0.00000000       0.00000000       0.00000000
O        9.16077827       1.35539012       6.10801450  F       0.00000000       0.00000000       0.00000000
O        9.16078421       4.05045012       6.10800209  F       0.00000000       0.00000000       0.00000000
O        9.16077813       1.35146153       3.02679635  F       0.00000000       0.00000000       0.00000000
O        9.16077813       4.05438459       3.02679635  F       0.00000000       0.00000000       0.00000000
O        6.11516589       6.70909198      12.16749812  T       0.00000000       0.00000000       0.00000000
O        6.11008335       9.50486328      12.16725175  T       0.00000000       0.00000000       0.00000000
O        6.11126484       6.75733722       9.16534182  T       0.00000000       0.00000000       0.00000000
O        6.10892425       9.45370834       9.16538631  T       0.00000000       0.00000000       0.00000000
O        9.16622824       4.04920228       9.16644098  T       0.00000000       0.00000000       0.00000000
O        3.05410229       1.35293689       9.16106785  T       0.00000000       0.00000000       0.00000000
O        9.16639581       6.70972516      12.16918122  T       0.00000000       0.00000000       0.00000000
O       12.21679505       9.50405451      12.17000310  T       0.00000000       0.00000000       0.00000000
O        0.00000000       6.75730765       3.02679635  F       0.00000000       0.00000000       0.00000000
O        3.05544129       4.05013743       9.16413968  T       0.00000000       0.00000000       0.00000000
O        0.00241190       1.30289941      12.16957743  T       0.00000000       0.00000000       0.00000000
O        0.00000951       9.45630243       6.10801529  F       0.00000000       0.00000000       0.00000000
O       12.22325194       4.09888333      12.16726204  T       0.00000000       0.00000000       0.00000000
O        0.00000182       6.76124509       6.10800952  F       0.00000000       0.00000000       0.00000000
O        0.00006847       9.45533977       9.16467545  T       0.00000000       0.00000000       0.00000000
O        0.00031803       1.35544018       9.16576645  T       0.00000000       0.00000000       0.00000000
O        0.00297555       6.76074663       9.16512951  T       0.00000000       0.00000000       0.00000000
O       12.21766087       4.04970002       9.16824201  T       0.00000000       0.00000000       0.00000000
O       12.22319814       6.71056835      12.15849147  T       0.00000000       0.00000000       0.00000000
O        0.00000448       1.35539672       6.10801283  F       0.00000000       0.00000000       0.00000000
O        0.00000331       4.05045002       6.10801189  F       0.00000000       0.00000000       0.00000000
O        3.05359271       4.05438459       3.02679635  F       0.00000000       0.00000000       0.00000000
O        0.00000000       9.46023072       3.02679635  F       0.00000000       0.00000000       0.00000000
O        3.05359105       4.05044320       6.10802763  F       0.00000000       0.00000000       0.00000000
O        3.05359271       1.35146153       3.02679635  F       0.00000000       0.00000000       0.00000000
O        3.05359652       1.35540103       6.10801944  F       0.00000000       0.00000000       0.00000000
O        0.00000000       4.05438459       3.02679635  F       0.00000000       0.00000000       0.00000000
O        0.00000000       1.35146153       3.02679635  F       0.00000000       0.00000000       0.00000000
Pd       7.64157306       5.40296249      12.01879472  T       0.00000000       0.00000000       0.00000000
Pd      10.69518250       5.40410445      12.01892824  T       0.00000000       0.00000000       0.00000000
Pd       0.00000000       8.10876919       1.50000000  F       0.00000000       0.00000000       0.00000000
Pd       9.16349120       8.10628053      10.76596796  T       0.00000000       0.00000000       0.00000000
Pd       1.52679635       0.00000000       3.02679635  F       0.00000000       0.00000000       0.00000000
Pd       9.16077813       2.70292306       1.50000000  F       0.00000000       0.00000000       0.00000000
Pd      10.68757448       0.00000000       3.02679635  F       0.00000000       0.00000000       0.00000000
Pd      10.69135637       5.40525281       9.13718476  T       0.00000000       0.00000000       0.00000000
Pd       1.52881926      -0.00212220      12.01433458  T       0.00000000       0.00000000       0.00000000
Pd       9.16077900       2.70292450       4.56559698  F       0.00000000       0.00000000       0.00000000
Pd      10.68756280      10.81168006       6.11657659  F       0.00000000       0.00000000       0.00000000
Pd       9.16077776       8.10875607       4.56559406  F       0.00000000       0.00000000       0.00000000
Pd       1.52678677       0.00000067       6.11658292  F       0.00000000       0.00000000       0.00000000
Pd       9.16231277       8.10736982       7.64934822  T       0.00000000       0.00000000       0.00000000
Pd       9.16353563       2.70266847       7.64873799  T       0.00000000       0.00000000       0.00000000
Pd      10.68839659      -0.00136011       9.13535596  T       0.00000000       0.00000000       0.00000000
Pd       0.00000135       2.70292705       4.56560641  F       0.00000000       0.00000000       0.00000000
Pd       1.52678419      10.81044208       9.13451889  T       0.00000000       0.00000000       0.00000000
Pd       9.16532507       2.70024290      10.76362595  T       0.00000000       0.00000000       0.00000000
Pd       6.11190707       8.10635534      10.76518952  T       0.00000000       0.00000000       0.00000000
Pd      10.69053008      10.80920774      12.01580024  T       0.00000000       0.00000000       0.00000000
Pd       0.00046401       2.70331540       7.64960196  T       0.00000000       0.00000000       0.00000000
Pd      10.68757280       5.40584816       6.11657764  F       0.00000000       0.00000000       0.00000000
Pd       9.16077813       8.10876919       1.50000000  F       0.00000000       0.00000000       0.00000000
Pd      10.68757448       5.40584612       3.02679635  F       0.00000000       0.00000000       0.00000000
Pd      12.21715652       2.69974834      10.76693553  T       0.00000000       0.00000000       0.00000000
Pd       4.58171874      -0.00212019       9.13414585  T       0.00000000       0.00000000       0.00000000
Pd       7.63397856       5.40585179       6.11657833  F       0.00000000       0.00000000       0.00000000
Pd       7.63790945       5.40230966       9.13742924  T       0.00000000       0.00000000       0.00000000
Pd       4.58922366       5.40349114      12.01675672  T       0.00000000       0.00000000       0.00000000
Pd       3.05831307       8.10809042      10.76078555  T       0.00000000       0.00000000       0.00000000
Pd       4.58038906       0.00000000       3.02679635  F       0.00000000       0.00000000       0.00000000
Pd       4.58422201       5.40275583       9.13647354  T       0.00000000       0.00000000       0.00000000
Pd       3.05532443       8.10766018       7.64791422  T       0.00000000       0.00000000       0.00000000
Pd       3.05359494       2.70292824       4.56560681  F       0.00000000       0.00000000       0.00000000
Pd       3.05359271       2.70292306       1.50000000  F       0.00000000       0.00000000       0.00000000
Pd       4.58039501       5.40584640       6.11658908  F       0.00000000       0.00000000       0.00000000
Pd       4.58040505      10.81168838       6.11658203  F       0.00000000       0.00000000       0.00000000
Pd       4.58038906       5.40584612       3.02679635  F       0.00000000       0.00000000       0.00000000
Pd       3.05359271       8.10876919       1.50000000  F       0.00000000       0.00000000       0.00000000
Pd       3.05335080       2.70279017       7.64747307  T       0.00000000       0.00000000       0.00000000
Pd       4.58397354      -0.00182787      12.01495755  T       0.00000000       0.00000000       0.00000000
Pd       3.05736060       2.69999741      10.75908828  T       0.00000000       0.00000000       0.00000000
Pd       3.05359569       8.10876742       4.56559865  F       0.00000000       0.00000000       0.00000000
Pd       6.10718542       2.70292306       1.50000000  F       0.00000000       0.00000000       0.00000000
Pd       7.63398177       0.00000000       3.02679635  F       0.00000000       0.00000000       0.00000000
Pd       1.53741916       5.40466664      12.00646360  T       0.00000000       0.00000000       0.00000000
Pd       6.10842820       8.10681763       7.64930928  T       0.00000000       0.00000000       0.00000000
Pd       0.00000079       8.10876600       4.56559869  F       0.00000000       0.00000000       0.00000000
Pd       6.10718651       8.10875952       4.56558968  F       0.00000000       0.00000000       0.00000000
Pd       1.52680247       5.40584247       6.11658534  F       0.00000000       0.00000000       0.00000000
Pd       7.63398177       5.40584612       3.02679635  F       0.00000000       0.00000000       0.00000000
Pd       6.10718542       8.10876919       1.50000000  F       0.00000000       0.00000000       0.00000000
Pd       0.00036377       8.10784922       7.64800400  T       0.00000000       0.00000000       0.00000000
Pd       7.63611321      10.80977918      12.01637444  T       0.00000000       0.00000000       0.00000000
Pd       6.11113718       2.69954687      10.76741532  T       0.00000000       0.00000000       0.00000000
Pd       1.52987677       5.40542166       9.13590182  T       0.00000000       0.00000000       0.00000000
Pd       7.63578716      -0.00243019       9.13514867  T       0.00000000       0.00000000       0.00000000
Pd       6.10834975       2.70135188       7.64966087  T       0.00000000       0.00000000       0.00000000
Pd      12.21700025       8.11151176      10.76231312  T       0.00000000       0.00000000       0.00000000
Pd       7.63399583      10.81167532       6.11657540  F       0.00000000       0.00000000       0.00000000
Pd       6.10718592       2.70292523       4.56558724  F       0.00000000       0.00000000       0.00000000
Pd       1.52679635       5.40584612       3.02679635  F       0.00000000       0.00000000       0.00000000
Pd       0.00000000       2.70292306       1.50000000  F       0.00000000       0.00000000       0.00000000
C       12.04645469       6.09408858      15.20446418  T       0.00000000       0.00000000       0.00000000
O       13.18583100       5.95878567      15.19399915  T       0.00000000       0.00000000       0.00000000
