130
Lattice="12.21437083684855 0.0 7e-16 1.7e-15 10.811692246786171 7e-16 0.0 0.0 30.687574482242482" Properties=species:S:1:pos:R:3:move_mask:L:1:momenta:R:3 adsorbate_info="_JSON {\"site\": {\"coordinates\": [6.107215775082967, 8.10878465279261, 12.116877086941498], \"connectivity\": 2, \"topology\": [36, 37], \"n_vector\": [0.0020933515431044904, -0.0008493987416755123, 0.9999974481972914], \"h_vector\": [2.3522083287367576e-06, -0.9999999999856098, -4.821573675177505e-06], \"site_formula\": {\"O\": 2}}, \"smiles\": \"Cl[C]=O\", \"mdf\": 2.3040250722022084, \"adsorbate_formula\": \"CO\"}" mace_E=-687.8568931434019 converged=T n_steps=24 d_min=2.453697387541499 site_type=atop dE_rel_meV=0 original_idx=67 rank=7 E_MACE=-687.9461974050199 pbc="T T T"
O        3.05390180       6.71386022      12.16203932  T       0.00000000       0.00000000       0.00000000
O        6.09706263       1.30570537      12.15618832  T       0.00000000       0.00000000       0.00000000
O        6.10450402       4.10141562      12.15318276  T       0.00000000       0.00000000       0.00000000
O        6.10506284       1.35293333       9.16063188  T       0.00000000       0.00000000       0.00000000
O        6.10729834       4.04798649       9.16237145  T       0.00000000       0.00000000       0.00000000
O        6.10718343       1.35539432       6.10801899  F       0.00000000       0.00000000       0.00000000
O        6.10718534       4.05045008       6.10801162  F       0.00000000       0.00000000       0.00000000
O        6.10718542       1.35146153       3.02679635  F       0.00000000       0.00000000       0.00000000
O        6.10718542       4.05438459       3.02679635  F       0.00000000       0.00000000       0.00000000
O        9.15411966       9.50609517      12.15364376  T       0.00000000       0.00000000       0.00000000
O        3.04305248       9.50960344      12.14932734  T       0.00000000       0.00000000       0.00000000
O        3.05224263       6.75751606       9.16273479  T       0.00000000       0.00000000       0.00000000
O        3.04927171       9.45606940       9.16186025  T       0.00000000       0.00000000       0.00000000
O        3.05359341       6.76124998       6.10801980  F       0.00000000       0.00000000       0.00000000
O        3.05359360       9.45629444       6.10802097  F       0.00000000       0.00000000       0.00000000
O        3.05359271       6.75730765       3.02679635  F       0.00000000       0.00000000       0.00000000
O        3.05359271       9.46023072       3.02679635  F       0.00000000       0.00000000       0.00000000
O        3.04488280       1.30928932      12.17142762  T       0.00000000       0.00000000       0.00000000
O        6.10718542       9.46023072       3.02679635  F       0.00000000       0.00000000       0.00000000
O        6.10718542       6.75730765       3.02679635  F       0.00000000       0.00000000       0.00000000
O        6.10718028       9.45628983       6.10801454  F       0.00000000       0.00000000       0.00000000
O        6.10718760       6.76124043       6.10802244  F       0.00000000       0.00000000       0.00000000
O        9.16287141       6.75716600       9.16420121  T       0.00000000       0.00000000       0.00000000
O        9.16043257       9.45472163       9.16374645  T       0.00000000       0.00000000       0.00000000
O        9.16078073       6.76123572       6.10801818  F       0.00000000       0.00000000       0.00000000
O        9.16078059       9.45627785       6.10801483  F       0.00000000       0.00000000       0.00000000
O        9.16077813       6.75730765       3.02679635  F       0.00000000       0.00000000       0.00000000
O        9.16077813       9.46023072       3.02679635  F       0.00000000       0.00000000       0.00000000
O        9.15376100       1.30729235      12.17221972  T       0.00000000       0.00000000       0.00000000
O        9.15947491       4.10163685      12.17287503  T       0.00000000       0.00000000       0.00000000
O        3.05159778       4.10419855      12.17104372  T       0.00000000       0.00000000       0.00000000
O        9.16235546       1.35562520       9.17115874  T       0.00000000       0.00000000       0.00000000
O        9.16077827       1.35539012       6.10801450  F       0.00000000       0.00000000       0.00000000
O        9.16078421       4.05045012       6.10800209  F       0.00000000       0.00000000       0.00000000
O        9.16077813       1.35146153       3.02679635  F       0.00000000       0.00000000       0.00000000
O        9.16077813       4.05438459       3.02679635  F       0.00000000       0.00000000       0.00000000
O        6.10655703       6.71078668      12.14367304  T       0.00000000       0.00000000       0.00000000
O        6.09731707       9.50729078      12.12573634  T       0.00000000       0.00000000       0.00000000
O        6.10789874       6.75447171       9.15239709  T       0.00000000       0.00000000       0.00000000
O        6.10465957       9.45939715       9.15155118  T       0.00000000       0.00000000       0.00000000
O        9.16401668       4.04669263       9.17028595  T       0.00000000       0.00000000       0.00000000
O        3.04776401       1.35655679       9.17055477  T       0.00000000       0.00000000       0.00000000
O        9.15799102       6.71053371      12.16312481  T       0.00000000       0.00000000       0.00000000
O       12.20654695       9.50933336      12.16490187  T       0.00000000       0.00000000       0.00000000
O        0.00000000       6.75730765       3.02679635  F       0.00000000       0.00000000       0.00000000
O        3.05045568       4.04813564       9.16875597  T       0.00000000       0.00000000       0.00000000
O       -0.01025789       1.30928001      12.17933824  T       0.00000000       0.00000000       0.00000000
O        0.00000951       9.45630243       6.10801529  F       0.00000000       0.00000000       0.00000000
O       12.21391263       4.10460972      12.17046960  T       0.00000000       0.00000000       0.00000000
O        0.00000182       6.76124509       6.10800952  F       0.00000000       0.00000000       0.00000000
O       -0.00192968       9.45463493       9.16782907  T       0.00000000       0.00000000       0.00000000
O       -0.00298309       1.35549130       9.17263804  T       0.00000000       0.00000000       0.00000000
O       -0.00041569       6.76010698       9.16836718  T       0.00000000       0.00000000       0.00000000
O       12.21462139       4.04705220       9.17142771  T       0.00000000       0.00000000       0.00000000
O       12.21202697       6.71255257      12.16708486  T       0.00000000       0.00000000       0.00000000
O        0.00000448       1.35539672       6.10801283  F       0.00000000       0.00000000       0.00000000
O        0.00000331       4.05045002       6.10801189  F       0.00000000       0.00000000       0.00000000
O        3.05359271       4.05438459       3.02679635  F       0.00000000       0.00000000       0.00000000
O        0.00000000       9.46023072       3.02679635  F       0.00000000       0.00000000       0.00000000
O        3.05359105       4.05044320       6.10802763  F       0.00000000       0.00000000       0.00000000
O        3.05359271       1.35146153       3.02679635  F       0.00000000       0.00000000       0.00000000
O        3.05359652       1.35540103       6.10801944  F       0.00000000       0.00000000       0.00000000
O        0.00000000       4.05438459       3.02679635  F       0.00000000       0.00000000       0.00000000
O        0.00000000       1.35146153       3.02679635  F       0.00000000       0.00000000       0.00000000
Pd       7.63329403       5.40473720      12.00973524  T       0.00000000       0.00000000       0.00000000
Pd      10.68600041       5.40699933      12.02212612  T       0.00000000       0.00000000       0.00000000
Pd       0.00000000       8.10876919       1.50000000  F       0.00000000       0.00000000       0.00000000
Pd       9.15939505       8.10537019      10.75826721  T       0.00000000       0.00000000       0.00000000
Pd       1.52679635       0.00000000       3.02679635  F       0.00000000       0.00000000       0.00000000
Pd       9.16077813       2.70292306       1.50000000  F       0.00000000       0.00000000       0.00000000
Pd      10.68757448       0.00000000       3.02679635  F       0.00000000       0.00000000       0.00000000
Pd      10.68930360       5.40271730       9.14025665  T       0.00000000       0.00000000       0.00000000
Pd       1.51575742       0.00523011      12.01888931  T       0.00000000       0.00000000       0.00000000
Pd       9.16077900       2.70292450       4.56559698  F       0.00000000       0.00000000       0.00000000
Pd      10.68756280      10.81168006       6.11657659  F       0.00000000       0.00000000       0.00000000
Pd       9.16077776       8.10875607       4.56559406  F       0.00000000       0.00000000       0.00000000
Pd       1.52678677       0.00000067       6.11658292  F       0.00000000       0.00000000       0.00000000
Pd       9.16229005       8.10686745       7.64797026  T       0.00000000       0.00000000       0.00000000
Pd       9.16337182       2.70196482       7.65125455  T       0.00000000       0.00000000       0.00000000
Pd      10.68667697      -0.00121737       9.14100340  T       0.00000000       0.00000000       0.00000000
Pd       0.00000135       2.70292705       4.56560641  F       0.00000000       0.00000000       0.00000000
Pd       1.52296199      10.81161081       9.14008689  T       0.00000000       0.00000000       0.00000000
Pd       9.16130067       2.70351370      10.77075433  T       0.00000000       0.00000000       0.00000000
Pd       6.10413663       8.10545809      10.73822529  T       0.00000000       0.00000000       0.00000000
Pd      10.67935819      10.81381917      12.02063248  T       0.00000000       0.00000000       0.00000000
Pd      -0.00068863       2.70182490       7.65209358  T       0.00000000       0.00000000       0.00000000
Pd      10.68757280       5.40584816       6.11657764  F       0.00000000       0.00000000       0.00000000
Pd       9.16077813       8.10876919       1.50000000  F       0.00000000       0.00000000       0.00000000
Pd      10.68757448       5.40584612       3.02679635  F       0.00000000       0.00000000       0.00000000
Pd      12.21027996       2.70310520      10.77225693  T       0.00000000       0.00000000       0.00000000
Pd       4.57542296       0.00117849       9.12905222  T       0.00000000       0.00000000       0.00000000
Pd       7.63397856       5.40585179       6.11657833  F       0.00000000       0.00000000       0.00000000
Pd       7.63639133       5.40088980       9.13389475  T       0.00000000       0.00000000       0.00000000
Pd       4.57801267       5.40679521      12.00921108  T       0.00000000       0.00000000       0.00000000
Pd       3.04928629       8.10694805      10.75556543  T       0.00000000       0.00000000       0.00000000
Pd       4.58038906       0.00000000       3.02679635  F       0.00000000       0.00000000       0.00000000
Pd       4.57903614       5.40153188       9.13292054  T       0.00000000       0.00000000       0.00000000
Pd       3.05149311       8.10732468       7.64714293  T       0.00000000       0.00000000       0.00000000
Pd       3.05359494       2.70292824       4.56560681  F       0.00000000       0.00000000       0.00000000
Pd       3.05359271       2.70292306       1.50000000  F       0.00000000       0.00000000       0.00000000
Pd       4.58039501       5.40584640       6.11658908  F       0.00000000       0.00000000       0.00000000
Pd       4.58040505      10.81168838       6.11658203  F       0.00000000       0.00000000       0.00000000
Pd       4.58038906       5.40584612       3.02679635  F       0.00000000       0.00000000       0.00000000
Pd       3.05359271       8.10876919       1.50000000  F       0.00000000       0.00000000       0.00000000
Pd       3.04982171       2.70227653       7.65083512  T       0.00000000       0.00000000       0.00000000
Pd       4.56777259       0.00351019      11.99738333  T       0.00000000       0.00000000       0.00000000
Pd       3.04749556       2.70548946      10.76932859  T       0.00000000       0.00000000       0.00000000
Pd       3.05359569       8.10876742       4.56559865  F       0.00000000       0.00000000       0.00000000
Pd       6.10718542       2.70292306       1.50000000  F       0.00000000       0.00000000       0.00000000
Pd       7.63398177       0.00000000       3.02679635  F       0.00000000       0.00000000       0.00000000
Pd       1.52581098       5.40937392      12.02140438  T       0.00000000       0.00000000       0.00000000
Pd       6.10679182       8.10668208       7.64160052  T       0.00000000       0.00000000       0.00000000
Pd       0.00000079       8.10876600       4.56559869  F       0.00000000       0.00000000       0.00000000
Pd       6.10718651       8.10875952       4.56558968  F       0.00000000       0.00000000       0.00000000
Pd       1.52680247       5.40584247       6.11658534  F       0.00000000       0.00000000       0.00000000
Pd       7.63398177       5.40584612       3.02679635  F       0.00000000       0.00000000       0.00000000
Pd       6.10718542       8.10876919       1.50000000  F       0.00000000       0.00000000       0.00000000
Pd      -0.00066464       8.10773678       7.65022664  T       0.00000000       0.00000000       0.00000000
Pd       7.62653794      10.81443991      12.00314851  T       0.00000000       0.00000000       0.00000000
Pd       6.10324923       2.70122156      10.75564622  T       0.00000000       0.00000000       0.00000000
Pd       1.52527197       5.40353254       9.13902045  T       0.00000000       0.00000000       0.00000000
Pd       7.63430677       0.00050087       9.13181314  T       0.00000000       0.00000000       0.00000000
Pd       6.10706672       2.70245871       7.64626982  T       0.00000000       0.00000000       0.00000000
Pd      12.21090738       8.10920428      10.76539214  T       0.00000000       0.00000000       0.00000000
Pd       7.63399583      10.81167532       6.11657540  F       0.00000000       0.00000000       0.00000000
Pd       6.10718592       2.70292523       4.56558724  F       0.00000000       0.00000000       0.00000000
Pd       1.52679635       5.40584612       3.02679635  F       0.00000000       0.00000000       0.00000000
Pd       0.00000000       2.70292306       1.50000000  F       0.00000000       0.00000000       0.00000000
C        6.47816268      10.19217621      15.06713355  T       0.00000000       0.00000000       0.00000000
O        5.37802834       9.97953208      15.31576584  T       0.00000000       0.00000000       0.00000000
