130
Lattice="12.21437083684855 0.0 7e-16 1.7e-15 10.811692246786171 7e-16 0.0 0.0 30.687574482242482" Properties=species:S:1:pos:R:3:move_mask:L:1:momenta:R:3 adsorbate_info="_JSON {\"site\": {\"coordinates\": [0.7633807146878775, 10.167142001734756, 12.046295448136533], \"connectivity\": 2, \"topology\": [43, 72], \"n_vector\": [0.08596345900981046, 0.04663382284587498, 0.9952062953387344], \"h_vector\": [0.7621694834284063, 0.6435280647420049, -0.07049332181055278], \"site_formula\": {\"O\": 1, \"Pd\": 1}}, \"smiles\": \"Cl[C]=O\", \"mdf\": 2.4698175632440154, \"adsorbate_formula\": \"CO\"}" mace_E=-687.83431981845 converged=T n_steps=23 d_min=2.458158014962602 site_type=hollow dE_rel_meV=0 original_idx=6 rank=0 E_MACE=-687.9499342381896 pbc="T T T"
O        3.05441410       6.71506004      12.16664950  T       0.00000000       0.00000000       0.00000000
O        6.11312306       1.30766264      12.17372480  T       0.00000000       0.00000000       0.00000000
O        6.10770066       4.10515164      12.16655923  T       0.00000000       0.00000000       0.00000000
O        6.10860931       1.35535997       9.17025061  T       0.00000000       0.00000000       0.00000000
O        6.10620808       4.04875186       9.16913881  T       0.00000000       0.00000000       0.00000000
O        6.10718343       1.35539432       6.10801899  F       0.00000000       0.00000000       0.00000000
O        6.10718534       4.05045008       6.10801162  F       0.00000000       0.00000000       0.00000000
O        6.10718542       1.35146153       3.02679635  F       0.00000000       0.00000000       0.00000000
O        6.10718542       4.05438459       3.02679635  F       0.00000000       0.00000000       0.00000000
O        9.16692607       9.51115130      12.15248641  T       0.00000000       0.00000000       0.00000000
O        3.05751215       9.51284980      12.16021566  T       0.00000000       0.00000000       0.00000000
O        3.05394282       6.76013152       9.16756667  T       0.00000000       0.00000000       0.00000000
O        3.05516898       9.45672133       9.16535836  T       0.00000000       0.00000000       0.00000000
O        3.05359341       6.76124998       6.10801980  F       0.00000000       0.00000000       0.00000000
O        3.05359360       9.45629444       6.10802097  F       0.00000000       0.00000000       0.00000000
O        3.05359271       6.75730765       3.02679635  F       0.00000000       0.00000000       0.00000000
O        3.05359271       9.46023072       3.02679635  F       0.00000000       0.00000000       0.00000000
O        3.06040185       1.31097557      12.17821277  T       0.00000000       0.00000000       0.00000000
O        6.10718542       9.46023072       3.02679635  F       0.00000000       0.00000000       0.00000000
O        6.10718542       6.75730765       3.02679635  F       0.00000000       0.00000000       0.00000000
O        6.10718028       9.45628983       6.10801454  F       0.00000000       0.00000000       0.00000000
O        6.10718760       6.76124043       6.10802244  F       0.00000000       0.00000000       0.00000000
O        9.15979781       6.75788971       9.16521058  T       0.00000000       0.00000000       0.00000000
O        9.16157463       9.45538492       9.16383045  T       0.00000000       0.00000000       0.00000000
O        9.16078073       6.76123572       6.10801818  F       0.00000000       0.00000000       0.00000000
O        9.16078059       9.45627785       6.10801483  F       0.00000000       0.00000000       0.00000000
O        9.16077813       6.75730765       3.02679635  F       0.00000000       0.00000000       0.00000000
O        9.16077813       9.46023072       3.02679635  F       0.00000000       0.00000000       0.00000000
O        9.16180528       1.31006650      12.17122530  T       0.00000000       0.00000000       0.00000000
O        9.16137784       4.10405928      12.17217835  T       0.00000000       0.00000000       0.00000000
O        3.05446804       4.10678311      12.17170479  T       0.00000000       0.00000000       0.00000000
O        9.15924572       1.35595884       9.17077555  T       0.00000000       0.00000000       0.00000000
O        9.16077827       1.35539012       6.10801450  F       0.00000000       0.00000000       0.00000000
O        9.16078421       4.05045012       6.10800209  F       0.00000000       0.00000000       0.00000000
O        9.16077813       1.35146153       3.02679635  F       0.00000000       0.00000000       0.00000000
O        9.16077813       4.05438459       3.02679635  F       0.00000000       0.00000000       0.00000000
O        6.10887610       6.71279627      12.16699889  T       0.00000000       0.00000000       0.00000000
O        6.11122161       9.51029630      12.16367128  T       0.00000000       0.00000000       0.00000000
O        6.10702217       6.76095885       9.16812761  T       0.00000000       0.00000000       0.00000000
O        6.10774325       9.45571801       9.16742371  T       0.00000000       0.00000000       0.00000000
O        9.15821779       4.04856724       9.16936406  T       0.00000000       0.00000000       0.00000000
O        3.05714222       1.35692019       9.17267727  T       0.00000000       0.00000000       0.00000000
O        9.16138040       6.71403625      12.16771665  T       0.00000000       0.00000000       0.00000000
O       12.21757994       9.51624685      12.11900565  T       0.00000000       0.00000000       0.00000000
O        0.00000000       6.75730765       3.02679635  F       0.00000000       0.00000000       0.00000000
O        3.05623656       4.04816770       9.17105481  T       0.00000000       0.00000000       0.00000000
O        0.00469930       1.31150728      12.16415823  T       0.00000000       0.00000000       0.00000000
O        0.00000951       9.45630243       6.10801529  F       0.00000000       0.00000000       0.00000000
O       12.21622727       4.10693613      12.16146921  T       0.00000000       0.00000000       0.00000000
O        0.00000182       6.76124509       6.10800952  F       0.00000000       0.00000000       0.00000000
O        0.00161373       9.46068098       9.15045362  T       0.00000000       0.00000000       0.00000000
O        0.00126727       1.35560372       9.16522895  T       0.00000000       0.00000000       0.00000000
O        0.00011668       6.75477308       9.15385949  T       0.00000000       0.00000000       0.00000000
O       12.21502156       4.04942765       9.16433251  T       0.00000000       0.00000000       0.00000000
O       12.21288541       6.71437802      12.14114122  T       0.00000000       0.00000000       0.00000000
O        0.00000448       1.35539672       6.10801283  F       0.00000000       0.00000000       0.00000000
O        0.00000331       4.05045002       6.10801189  F       0.00000000       0.00000000       0.00000000
O        3.05359271       4.05438459       3.02679635  F       0.00000000       0.00000000       0.00000000
O        0.00000000       9.46023072       3.02679635  F       0.00000000       0.00000000       0.00000000
O        3.05359105       4.05044320       6.10802763  F       0.00000000       0.00000000       0.00000000
O        3.05359271       1.35146153       3.02679635  F       0.00000000       0.00000000       0.00000000
O        3.05359652       1.35540103       6.10801944  F       0.00000000       0.00000000       0.00000000
O        0.00000000       4.05438459       3.02679635  F       0.00000000       0.00000000       0.00000000
O        0.00000000       1.35146153       3.02679635  F       0.00000000       0.00000000       0.00000000
Pd       7.63499564       5.40863297      12.02000018  T       0.00000000       0.00000000       0.00000000
Pd      10.68648672       5.40813061      12.01308023  T       0.00000000       0.00000000       0.00000000
Pd       0.00000000       8.10876919       1.50000000  F       0.00000000       0.00000000       0.00000000
Pd       9.16272918       8.10745073      10.75849230  T       0.00000000       0.00000000       0.00000000
Pd       1.52679635       0.00000000       3.02679635  F       0.00000000       0.00000000       0.00000000
Pd       9.16077813       2.70292306       1.50000000  F       0.00000000       0.00000000       0.00000000
Pd      10.68757448       0.00000000       3.02679635  F       0.00000000       0.00000000       0.00000000
Pd      10.68607657       5.40192066       9.13575290  T       0.00000000       0.00000000       0.00000000
Pd       1.53430007       0.01011495      12.01184781  T       0.00000000       0.00000000       0.00000000
Pd       9.16077900       2.70292450       4.56559698  F       0.00000000       0.00000000       0.00000000
Pd      10.68756280      10.81168006       6.11657659  F       0.00000000       0.00000000       0.00000000
Pd       9.16077776       8.10875607       4.56559406  F       0.00000000       0.00000000       0.00000000
Pd       1.52678677       0.00000067       6.11658292  F       0.00000000       0.00000000       0.00000000
Pd       9.15988791       8.10710330       7.64748357  T       0.00000000       0.00000000       0.00000000
Pd       9.15858619       2.70222975       7.65038797  T       0.00000000       0.00000000       0.00000000
Pd      10.68716669       0.00181231       9.13295419  T       0.00000000       0.00000000       0.00000000
Pd       0.00000135       2.70292705       4.56560641  F       0.00000000       0.00000000       0.00000000
Pd       1.52989877      10.81420428       9.13287354  T       0.00000000       0.00000000       0.00000000
Pd       9.15853118       2.70574721      10.76795947  T       0.00000000       0.00000000       0.00000000
Pd       6.10880747       8.10974788      10.76363392  T       0.00000000       0.00000000       0.00000000
Pd      10.68916645      10.82254866      12.00159820  T       0.00000000       0.00000000       0.00000000
Pd       0.00027814       2.70250224       7.64754231  T       0.00000000       0.00000000       0.00000000
Pd      10.68757280       5.40584816       6.11657764  F       0.00000000       0.00000000       0.00000000
Pd       9.16077813       8.10876919       1.50000000  F       0.00000000       0.00000000       0.00000000
Pd      10.68757448       5.40584612       3.02679635  F       0.00000000       0.00000000       0.00000000
Pd      12.21728072       2.70636189      10.76060988  T       0.00000000       0.00000000       0.00000000
Pd       4.58208346       0.00031701       9.14126939  T       0.00000000       0.00000000       0.00000000
Pd       7.63397856       5.40585179       6.11657833  F       0.00000000       0.00000000       0.00000000
Pd       7.63236140       5.40418497       9.14026944  T       0.00000000       0.00000000       0.00000000
Pd       4.58134137       5.41002170      12.01885029  T       0.00000000       0.00000000       0.00000000
Pd       3.05420921       8.11051299      10.76105338  T       0.00000000       0.00000000       0.00000000
Pd       4.58038906       0.00000000       3.02679635  F       0.00000000       0.00000000       0.00000000
Pd       4.58077829       5.40503234       9.14094168  T       0.00000000       0.00000000       0.00000000
Pd       3.05480537       8.10799578       7.64855579  T       0.00000000       0.00000000       0.00000000
Pd       3.05359494       2.70292824       4.56560681  F       0.00000000       0.00000000       0.00000000
Pd       3.05359271       2.70292306       1.50000000  F       0.00000000       0.00000000       0.00000000
Pd       4.58039501       5.40584640       6.11658908  F       0.00000000       0.00000000       0.00000000
Pd       4.58040505      10.81168838       6.11658203  F       0.00000000       0.00000000       0.00000000
Pd       4.58038906       5.40584612       3.02679635  F       0.00000000       0.00000000       0.00000000
Pd       3.05359271       8.10876919       1.50000000  F       0.00000000       0.00000000       0.00000000
Pd       3.05645760       2.70227980       7.65135539  T       0.00000000       0.00000000       0.00000000
Pd       4.58586985       0.00505238      12.01981991  T       0.00000000       0.00000000       0.00000000
Pd       3.05789732       2.70548755      10.77099308  T       0.00000000       0.00000000       0.00000000
Pd       3.05359569       8.10876742       4.56559865  F       0.00000000       0.00000000       0.00000000
Pd       6.10718542       2.70292306       1.50000000  F       0.00000000       0.00000000       0.00000000
Pd       7.63398177       0.00000000       3.02679635  F       0.00000000       0.00000000       0.00000000
Pd       1.52869834       5.41028546      12.01328877  T       0.00000000       0.00000000       0.00000000
Pd       6.10714566       8.10834117       7.64927092  T       0.00000000       0.00000000       0.00000000
Pd       0.00000079       8.10876600       4.56559869  F       0.00000000       0.00000000       0.00000000
Pd       6.10718651       8.10875952       4.56558968  F       0.00000000       0.00000000       0.00000000
Pd       1.52680247       5.40584247       6.11658534  F       0.00000000       0.00000000       0.00000000
Pd       7.63398177       5.40584612       3.02679635  F       0.00000000       0.00000000       0.00000000
Pd       6.10718542       8.10876919       1.50000000  F       0.00000000       0.00000000       0.00000000
Pd       0.00071547       8.10730489       7.64094596  T       0.00000000       0.00000000       0.00000000
Pd       7.63814837      10.81438909      12.01593789  T       0.00000000       0.00000000       0.00000000
Pd       6.10937254       2.70341477      10.76697699  T       0.00000000       0.00000000       0.00000000
Pd       1.52882565       5.40243568       9.13649033  T       0.00000000       0.00000000       0.00000000
Pd       7.63431020      -0.00080855       9.14046773  T       0.00000000       0.00000000       0.00000000
Pd       6.10715793       2.70228574       7.65013784  T       0.00000000       0.00000000       0.00000000
Pd      12.21569953       8.10750766      10.73633966  T       0.00000000       0.00000000       0.00000000
Pd       7.63399583      10.81167532       6.11657540  F       0.00000000       0.00000000       0.00000000
Pd       6.10718592       2.70292523       4.56558724  F       0.00000000       0.00000000       0.00000000
Pd       1.52679635       5.40584612       3.02679635  F       0.00000000       0.00000000       0.00000000
Pd       0.00000000       2.70292306       1.50000000  F       0.00000000       0.00000000       0.00000000
C       -0.68386995       9.06082967      14.94686134  T       0.00000000       0.00000000       0.00000000
O        0.16564829       8.34223426      15.22758767  T       0.00000000       0.00000000       0.00000000
