130
Lattice="12.21437083684855 0.0 7e-16 1.7e-15 10.811692246786171 7e-16 0.0 0.0 30.687574482242482" Properties=species:S:1:pos:R:3:move_mask:L:1:momenta:R:3 adsorbate_info="_JSON {\"site\": {\"coordinates\": [0.7634000938327157, 0.6445640354749144, 12.046291209455731], \"connectivity\": 2, \"topology\": [46, 72], \"n_vector\": [0.07875160807478325, 0.10036959064248606, 0.9918286795106781], \"h_vector\": [-0.7621794578064026, 0.6435164177850208, 0.07049180192811695], \"site_formula\": {\"O\": 1, \"Pd\": 1}}, \"smiles\": \"Cl[C]=O\", \"mdf\": 2.317041668998436, \"adsorbate_formula\": \"CO\"}" mace_E=-687.9459984867733 converged=T n_steps=46 d_min=2.970980939207258 site_type=atop dE_rel_meV=0 original_idx=3 rank=66 E_MACE=-687.8554432286256 pbc="T T T"
O        3.07409474       6.70902132      12.17503926  T       0.00000000       0.00000000       0.00000000
O        6.13533113       1.29887783      12.16175829  T       0.00000000       0.00000000       0.00000000
O        6.12414269       4.09445085      12.17351822  T       0.00000000       0.00000000       0.00000000
O        6.12069121       1.35299186       9.16731651  T       0.00000000       0.00000000       0.00000000
O        6.11893958       4.04810395       9.16952775  T       0.00000000       0.00000000       0.00000000
O        6.10718343       1.35539432       6.10801899  F       0.00000000       0.00000000       0.00000000
O        6.10718534       4.05045008       6.10801162  F       0.00000000       0.00000000       0.00000000
O        6.10718542       1.35146153       3.02679635  F       0.00000000       0.00000000       0.00000000
O        6.10718542       4.05438459       3.02679635  F       0.00000000       0.00000000       0.00000000
O        9.18947976       9.50256158      12.16526007  T       0.00000000       0.00000000       0.00000000
O        3.08737018       9.49519214      12.15764717  T       0.00000000       0.00000000       0.00000000
O        3.06729464       6.75740348       9.16957797  T       0.00000000       0.00000000       0.00000000
O        3.06538664       9.45438790       9.17172001  T       0.00000000       0.00000000       0.00000000
O        3.05359341       6.76124998       6.10801980  F       0.00000000       0.00000000       0.00000000
O        3.05359360       9.45629444       6.10802097  F       0.00000000       0.00000000       0.00000000
O        3.05359271       6.75730765       3.02679635  F       0.00000000       0.00000000       0.00000000
O        3.05359271       9.46023072       3.02679635  F       0.00000000       0.00000000       0.00000000
O        3.08982341       1.31133903      12.16866777  T       0.00000000       0.00000000       0.00000000
O        6.10718542       9.46023072       3.02679635  F       0.00000000       0.00000000       0.00000000
O        6.10718542       6.75730765       3.02679635  F       0.00000000       0.00000000       0.00000000
O        6.10718028       9.45628983       6.10801454  F       0.00000000       0.00000000       0.00000000
O        6.10718760       6.76124043       6.10802244  F       0.00000000       0.00000000       0.00000000
O        9.17159362       6.75866117       9.16632846  T       0.00000000       0.00000000       0.00000000
O        9.17546499       9.45360452       9.16754576  T       0.00000000       0.00000000       0.00000000
O        9.16078073       6.76123572       6.10801818  F       0.00000000       0.00000000       0.00000000
O        9.16078059       9.45627785       6.10801483  F       0.00000000       0.00000000       0.00000000
O        9.16077813       6.75730765       3.02679635  F       0.00000000       0.00000000       0.00000000
O        9.16077813       9.46023072       3.02679635  F       0.00000000       0.00000000       0.00000000
O        9.18834534       1.29762113      12.15444429  T       0.00000000       0.00000000       0.00000000
O        9.17970570       4.09782554      12.15347675  T       0.00000000       0.00000000       0.00000000
O        3.06983874       4.09776231      12.17261546  T       0.00000000       0.00000000       0.00000000
O        9.17496196       1.34850259       9.16205055  T       0.00000000       0.00000000       0.00000000
O        9.16077827       1.35539012       6.10801450  F       0.00000000       0.00000000       0.00000000
O        9.16078421       4.05045012       6.10800209  F       0.00000000       0.00000000       0.00000000
O        9.16077813       1.35146153       3.02679635  F       0.00000000       0.00000000       0.00000000
O        9.16077813       4.05438459       3.02679635  F       0.00000000       0.00000000       0.00000000
O        6.12612529       6.70601942      12.17523684  T       0.00000000       0.00000000       0.00000000
O        6.13282805       9.50304782      12.16505585  T       0.00000000       0.00000000       0.00000000
O        6.11909243       6.75814496       9.16915293  T       0.00000000       0.00000000       0.00000000
O        6.11845974       9.45247349       9.17071692  T       0.00000000       0.00000000       0.00000000
O        9.17366790       4.04814450       9.16416799  T       0.00000000       0.00000000       0.00000000
O        3.06651463       1.35371618       9.17184346  T       0.00000000       0.00000000       0.00000000
O        9.17601956       6.70381677      12.15998284  T       0.00000000       0.00000000       0.00000000
O       12.23665340       9.49026451      12.18124109  T       0.00000000       0.00000000       0.00000000
O        0.00000000       6.75730765       3.02679635  F       0.00000000       0.00000000       0.00000000
O        3.06437709       4.04799974       9.17377183  T       0.00000000       0.00000000       0.00000000
O        0.01883614       1.31619759      12.17560905  T       0.00000000       0.00000000       0.00000000
O        0.00000951       9.45630243       6.10801529  F       0.00000000       0.00000000       0.00000000
O       12.23208191       4.10080811      12.16885279  T       0.00000000       0.00000000       0.00000000
O        0.00000182       6.76124509       6.10800952  F       0.00000000       0.00000000       0.00000000
O        0.01682665       9.45529831       9.17331121  T       0.00000000       0.00000000       0.00000000
O        0.01471064       1.35341694       9.17107606  T       0.00000000       0.00000000       0.00000000
O        0.01133545       6.76194797       9.17051903  T       0.00000000       0.00000000       0.00000000
O       12.22633831       4.04911849       9.17138296  T       0.00000000       0.00000000       0.00000000
O       12.23098007       6.70873836      12.17188778  T       0.00000000       0.00000000       0.00000000
O        0.00000448       1.35539672       6.10801283  F       0.00000000       0.00000000       0.00000000
O        0.00000331       4.05045002       6.10801189  F       0.00000000       0.00000000       0.00000000
O        3.05359271       4.05438459       3.02679635  F       0.00000000       0.00000000       0.00000000
O        0.00000000       9.46023072       3.02679635  F       0.00000000       0.00000000       0.00000000
O        3.05359105       4.05044320       6.10802763  F       0.00000000       0.00000000       0.00000000
O        3.05359271       1.35146153       3.02679635  F       0.00000000       0.00000000       0.00000000
O        3.05359652       1.35540103       6.10801944  F       0.00000000       0.00000000       0.00000000
O        0.00000000       4.05438459       3.02679635  F       0.00000000       0.00000000       0.00000000
O        0.00000000       1.35146153       3.02679635  F       0.00000000       0.00000000       0.00000000
Pd       7.64939693       5.39952826      12.01444544  T       0.00000000       0.00000000       0.00000000
Pd      10.70603319       5.40343402      12.01448642  T       0.00000000       0.00000000       0.00000000
Pd       0.00000000       8.10876919       1.50000000  F       0.00000000       0.00000000       0.00000000
Pd       9.17864224       8.10548133      10.76306168  T       0.00000000       0.00000000       0.00000000
Pd       1.52679635       0.00000000       3.02679635  F       0.00000000       0.00000000       0.00000000
Pd       9.16077813       2.70292306       1.50000000  F       0.00000000       0.00000000       0.00000000
Pd      10.68757448       0.00000000       3.02679635  F       0.00000000       0.00000000       0.00000000
Pd      10.69959106       5.40464021       9.13852625  T       0.00000000       0.00000000       0.00000000
Pd       1.55178784      -0.00169653      12.05043351  T       0.00000000       0.00000000       0.00000000
Pd       9.16077900       2.70292450       4.56559698  F       0.00000000       0.00000000       0.00000000
Pd      10.68756280      10.81168006       6.11657659  F       0.00000000       0.00000000       0.00000000
Pd       9.16077776       8.10875607       4.56559406  F       0.00000000       0.00000000       0.00000000
Pd       1.52678677       0.00000067       6.11658292  F       0.00000000       0.00000000       0.00000000
Pd       9.16783554       8.10759845       7.64971271  T       0.00000000       0.00000000       0.00000000
Pd       9.16870009       2.70048058       7.64799329  T       0.00000000       0.00000000       0.00000000
Pd      10.70256036      -0.00362395       9.14008334  T       0.00000000       0.00000000       0.00000000
Pd       0.00000135       2.70292705       4.56560641  F       0.00000000       0.00000000       0.00000000
Pd       1.54102750      10.81049557       9.15029651  T       0.00000000       0.00000000       0.00000000
Pd       9.18048991       2.69751258      10.75573972  T       0.00000000       0.00000000       0.00000000
Pd       6.12402637       8.10153704      10.76854830  T       0.00000000       0.00000000       0.00000000
Pd      10.71989521      10.80816083      12.02039688  T       0.00000000       0.00000000       0.00000000
Pd       0.00848556       2.70158735       7.65162428  T       0.00000000       0.00000000       0.00000000
Pd      10.68757280       5.40584816       6.11657764  F       0.00000000       0.00000000       0.00000000
Pd       9.16077813       8.10876919       1.50000000  F       0.00000000       0.00000000       0.00000000
Pd      10.68757448       5.40584612       3.02679635  F       0.00000000       0.00000000       0.00000000
Pd      12.23022549       2.70294729      10.76700870  T       0.00000000       0.00000000       0.00000000
Pd       4.59392902      -0.00218445       9.14202124  T       0.00000000       0.00000000       0.00000000
Pd       7.63397856       5.40585179       6.11657833  F       0.00000000       0.00000000       0.00000000
Pd       7.64590821       5.40279164       9.13834806  T       0.00000000       0.00000000       0.00000000
Pd       4.59814565       5.40121967      12.02946931  T       0.00000000       0.00000000       0.00000000
Pd       3.07674573       8.09936841      10.76201156  T       0.00000000       0.00000000       0.00000000
Pd       4.58038906       0.00000000       3.02679635  F       0.00000000       0.00000000       0.00000000
Pd       4.59293167       5.40218905       9.14326475  T       0.00000000       0.00000000       0.00000000
Pd       3.06010608       8.10910252       7.65058703  T       0.00000000       0.00000000       0.00000000
Pd       3.05359494       2.70292824       4.56560681  F       0.00000000       0.00000000       0.00000000
Pd       3.05359271       2.70292306       1.50000000  F       0.00000000       0.00000000       0.00000000
Pd       4.58039501       5.40584640       6.11658908  F       0.00000000       0.00000000       0.00000000
Pd       4.58040505      10.81168838       6.11658203  F       0.00000000       0.00000000       0.00000000
Pd       4.58038906       5.40584612       3.02679635  F       0.00000000       0.00000000       0.00000000
Pd       3.05359271       8.10876919       1.50000000  F       0.00000000       0.00000000       0.00000000
Pd       3.05885562       2.70145094       7.65180500  T       0.00000000       0.00000000       0.00000000
Pd       4.60998113      -0.00460575      12.00781604  T       0.00000000       0.00000000       0.00000000
Pd       3.07231426       2.70438473      10.76590401  T       0.00000000       0.00000000       0.00000000
Pd       3.05359569       8.10876742       4.56559865  F       0.00000000       0.00000000       0.00000000
Pd       6.10718542       2.70292306       1.50000000  F       0.00000000       0.00000000       0.00000000
Pd       7.63398177       0.00000000       3.02679635  F       0.00000000       0.00000000       0.00000000
Pd       1.54529886       5.40522192      12.02700748  T       0.00000000       0.00000000       0.00000000
Pd       6.11046705       8.10781500       7.65122341  T       0.00000000       0.00000000       0.00000000
Pd       0.00000079       8.10876600       4.56559869  F       0.00000000       0.00000000       0.00000000
Pd       6.10718651       8.10875952       4.56558968  F       0.00000000       0.00000000       0.00000000
Pd       1.52680247       5.40584247       6.11658534  F       0.00000000       0.00000000       0.00000000
Pd       7.63398177       5.40584612       3.02679635  F       0.00000000       0.00000000       0.00000000
Pd       6.10718542       8.10876919       1.50000000  F       0.00000000       0.00000000       0.00000000
Pd       0.00828719       8.10969550       7.65138322  T       0.00000000       0.00000000       0.00000000
Pd       7.66298973      10.80558632      12.01115521  T       0.00000000       0.00000000       0.00000000
Pd       6.12428600       2.70187662      10.76543679  T       0.00000000       0.00000000       0.00000000
Pd       1.53805444       5.40481116       9.14480544  T       0.00000000       0.00000000       0.00000000
Pd       7.64652091      -0.00459246       9.13744734  T       0.00000000       0.00000000       0.00000000
Pd       6.11234668       2.70177747       7.65039769  T       0.00000000       0.00000000       0.00000000
Pd      12.22920864       8.10500773      10.76907538  T       0.00000000       0.00000000       0.00000000
Pd       7.63399583      10.81167532       6.11657540  F       0.00000000       0.00000000       0.00000000
Pd       6.10718592       2.70292523       4.56558724  F       0.00000000       0.00000000       0.00000000
Pd       1.52679635       5.40584612       3.02679635  F       0.00000000       0.00000000       0.00000000
Pd       0.00000000       2.70292306       1.50000000  F       0.00000000       0.00000000       0.00000000
C        1.79168790      -0.00353208      14.50098059  T       0.00000000       0.00000000       0.00000000
O        2.81714932      -0.16622439      15.00188954  T       0.00000000       0.00000000       0.00000000
