130
Lattice="12.21437083684855 0.0 7e-16 1.7e-15 10.811692246786171 7e-16 0.0 0.0 30.687574482242482" Properties=species:S:1:pos:R:3:move_mask:L:1:momenta:R:3 adsorbate_info="_JSON {\"site\": {\"coordinates\": [7.634022652642103, 6.694981752335383, 12.116887490358351], \"connectivity\": 2, \"topology\": [36, 42], \"n_vector\": [-0.0033769102674266415, 0.057840100310044475, 0.9983201486863669], \"h_vector\": [-0.9999999997652258, -1.8502438553728827e-05, -1.1278666387695496e-05], \"site_formula\": {\"O\": 2}}, \"smiles\": \"Cl[C]=O\", \"mdf\": 2.2051179112753125, \"adsorbate_formula\": \"CO\"}" mace_E=-687.84484705232 converged=T n_steps=41 d_min=2.480432611263978 site_type=atop dE_rel_meV=0 original_idx=84 rank=3 E_MACE=-687.9469100148577 pbc="T T T"
O        3.04750374       6.70596490      12.17243869  T       0.00000000       0.00000000       0.00000000
O        6.10169914       1.29978067      12.16298594  T       0.00000000       0.00000000       0.00000000
O        6.09806986       4.09383471      12.16477898  T       0.00000000       0.00000000       0.00000000
O        6.10514696       1.35015232       9.16389555  T       0.00000000       0.00000000       0.00000000
O        6.10667041       4.04917955       9.16712595  T       0.00000000       0.00000000       0.00000000
O        6.10718343       1.35539432       6.10801899  F       0.00000000       0.00000000       0.00000000
O        6.10718534       4.05045008       6.10801162  F       0.00000000       0.00000000       0.00000000
O        6.10718542       1.35146153       3.02679635  F       0.00000000       0.00000000       0.00000000
O        6.10718542       4.05438459       3.02679635  F       0.00000000       0.00000000       0.00000000
O        9.15238857       9.49866931      12.17288742  T       0.00000000       0.00000000       0.00000000
O        3.04895677       9.50283633      12.16825637  T       0.00000000       0.00000000       0.00000000
O        3.05027785       6.75434773       9.16781479  T       0.00000000       0.00000000       0.00000000
O        3.05079323       9.45161850       9.16977097  T       0.00000000       0.00000000       0.00000000
O        3.05359341       6.76124998       6.10801980  F       0.00000000       0.00000000       0.00000000
O        3.05359360       9.45629444       6.10802097  F       0.00000000       0.00000000       0.00000000
O        3.05359271       6.75730765       3.02679635  F       0.00000000       0.00000000       0.00000000
O        3.05359271       9.46023072       3.02679635  F       0.00000000       0.00000000       0.00000000
O        3.04890751       1.30159258      12.16730800  T       0.00000000       0.00000000       0.00000000
O        6.10718542       9.46023072       3.02679635  F       0.00000000       0.00000000       0.00000000
O        6.10718542       6.75730765       3.02679635  F       0.00000000       0.00000000       0.00000000
O        6.10718028       9.45628983       6.10801454  F       0.00000000       0.00000000       0.00000000
O        6.10718760       6.76124043       6.10802244  F       0.00000000       0.00000000       0.00000000
O        9.15757465       6.75918191       9.16780016  T       0.00000000       0.00000000       0.00000000
O        9.15811755       9.45408786       9.17154211  T       0.00000000       0.00000000       0.00000000
O        9.16078073       6.76123572       6.10801818  F       0.00000000       0.00000000       0.00000000
O        9.16078059       9.45627785       6.10801483  F       0.00000000       0.00000000       0.00000000
O        9.16077813       6.75730765       3.02679635  F       0.00000000       0.00000000       0.00000000
O        9.16077813       9.46023072       3.02679635  F       0.00000000       0.00000000       0.00000000
O        9.15629490       1.29598373      12.17796515  T       0.00000000       0.00000000       0.00000000
O        9.15441713       4.09315629      12.17028055  T       0.00000000       0.00000000       0.00000000
O        3.04764235       4.09738768      12.16470787  T       0.00000000       0.00000000       0.00000000
O        9.15845831       1.35132852       9.17126671  T       0.00000000       0.00000000       0.00000000
O        9.16077827       1.35539012       6.10801450  F       0.00000000       0.00000000       0.00000000
O        9.16078421       4.05045012       6.10800209  F       0.00000000       0.00000000       0.00000000
O        9.16077813       1.35146153       3.02679635  F       0.00000000       0.00000000       0.00000000
O        9.16077813       4.05438459       3.02679635  F       0.00000000       0.00000000       0.00000000
O        6.10098235       6.70627621      12.17329703  T       0.00000000       0.00000000       0.00000000
O        6.09950406       9.50306401      12.17080756  T       0.00000000       0.00000000       0.00000000
O        6.10419235       6.75767245       9.16927011  T       0.00000000       0.00000000       0.00000000
O        6.10540865       9.45362968       9.17081828  T       0.00000000       0.00000000       0.00000000
O        9.15771023       4.04761700       9.17412722  T       0.00000000       0.00000000       0.00000000
O        3.05097641       1.34884729       9.16509067  T       0.00000000       0.00000000       0.00000000
O        9.15201303       6.70367497      12.15782570  T       0.00000000       0.00000000       0.00000000
O       12.21387288       9.50170064      12.17083981  T       0.00000000       0.00000000       0.00000000
O        0.00000000       6.75730765       3.02679635  F       0.00000000       0.00000000       0.00000000
O        3.05031344       4.04664553       9.16756838  T       0.00000000       0.00000000       0.00000000
O       -0.00606550       1.29740489      12.16286466  T       0.00000000       0.00000000       0.00000000
O        0.00000951       9.45630243       6.10801529  F       0.00000000       0.00000000       0.00000000
O       12.21028599       4.09400429      12.16495304  T       0.00000000       0.00000000       0.00000000
O        0.00000182       6.76124509       6.10800952  F       0.00000000       0.00000000       0.00000000
O       -0.00348184       9.45340942       9.17114782  T       0.00000000       0.00000000       0.00000000
O       -0.00384610       1.35016451       9.16502160  T       0.00000000       0.00000000       0.00000000
O       -0.00372246       6.75745028       9.16934852  T       0.00000000       0.00000000       0.00000000
O       12.20806033       4.04909015       9.16847533  T       0.00000000       0.00000000       0.00000000
O       12.20802027       6.70769130      12.17485926  T       0.00000000       0.00000000       0.00000000
O        0.00000448       1.35539672       6.10801283  F       0.00000000       0.00000000       0.00000000
O        0.00000331       4.05045002       6.10801189  F       0.00000000       0.00000000       0.00000000
O        3.05359271       4.05438459       3.02679635  F       0.00000000       0.00000000       0.00000000
O        0.00000000       9.46023072       3.02679635  F       0.00000000       0.00000000       0.00000000
O        3.05359105       4.05044320       6.10802763  F       0.00000000       0.00000000       0.00000000
O        3.05359271       1.35146153       3.02679635  F       0.00000000       0.00000000       0.00000000
O        3.05359652       1.35540103       6.10801944  F       0.00000000       0.00000000       0.00000000
O        0.00000000       4.05438459       3.02679635  F       0.00000000       0.00000000       0.00000000
O        0.00000000       1.35146153       3.02679635  F       0.00000000       0.00000000       0.00000000
Pd       7.62594411       5.39525771      12.02290038  T       0.00000000       0.00000000       0.00000000
Pd      10.68307042       5.39703682      12.02049013  T       0.00000000       0.00000000       0.00000000
Pd       0.00000000       8.10876919       1.50000000  F       0.00000000       0.00000000       0.00000000
Pd       9.15541269       8.10695227      10.76553639  T       0.00000000       0.00000000       0.00000000
Pd       1.52679635       0.00000000       3.02679635  F       0.00000000       0.00000000       0.00000000
Pd       9.16077813       2.70292306       1.50000000  F       0.00000000       0.00000000       0.00000000
Pd      10.68757448       0.00000000       3.02679635  F       0.00000000       0.00000000       0.00000000
Pd      10.68304999       5.40386708       9.14168816  T       0.00000000       0.00000000       0.00000000
Pd       1.52334660      -0.00393968      12.01847217  T       0.00000000       0.00000000       0.00000000
Pd       9.16077900       2.70292450       4.56559698  F       0.00000000       0.00000000       0.00000000
Pd      10.68756280      10.81168006       6.11657659  F       0.00000000       0.00000000       0.00000000
Pd       9.16077776       8.10875607       4.56559406  F       0.00000000       0.00000000       0.00000000
Pd       1.52678677       0.00000067       6.11658292  F       0.00000000       0.00000000       0.00000000
Pd       9.15982652       8.10884480       7.65058468  T       0.00000000       0.00000000       0.00000000
Pd       9.15981261       2.70183246       7.65320737  T       0.00000000       0.00000000       0.00000000
Pd      10.68434555      -0.00372362       9.14227471  T       0.00000000       0.00000000       0.00000000
Pd       0.00000135       2.70292705       4.56560641  F       0.00000000       0.00000000       0.00000000
Pd       1.52375085      10.80659498       9.13834889  T       0.00000000       0.00000000       0.00000000
Pd       9.15646149       2.69467477      10.77236812  T       0.00000000       0.00000000       0.00000000
Pd       6.10142818       8.10433125      10.76897403  T       0.00000000       0.00000000       0.00000000
Pd      10.68219837      10.80191349      12.02672358  T       0.00000000       0.00000000       0.00000000
Pd      -0.00377450       2.70185672       7.64966737  T       0.00000000       0.00000000       0.00000000
Pd      10.68757280       5.40584816       6.11657764  F       0.00000000       0.00000000       0.00000000
Pd       9.16077813       8.10876919       1.50000000  F       0.00000000       0.00000000       0.00000000
Pd      10.68757448       5.40584612       3.02679635  F       0.00000000       0.00000000       0.00000000
Pd      12.20762925       2.69723608      10.76203148  T       0.00000000       0.00000000       0.00000000
Pd       4.57798424      -0.00526199       9.13746684  T       0.00000000       0.00000000       0.00000000
Pd       7.63397856       5.40585179       6.11657833  F       0.00000000       0.00000000       0.00000000
Pd       7.63184823       5.40391904       9.14097909  T       0.00000000       0.00000000       0.00000000
Pd       4.57396507       5.40266213      12.02117549  T       0.00000000       0.00000000       0.00000000
Pd       3.04973425       8.10236203      10.76779942  T       0.00000000       0.00000000       0.00000000
Pd       4.58038906       0.00000000       3.02679635  F       0.00000000       0.00000000       0.00000000
Pd       4.57791226       5.40142497       9.13887140  T       0.00000000       0.00000000       0.00000000
Pd       3.05198593       8.10595038       7.65112357  T       0.00000000       0.00000000       0.00000000
Pd       3.05359494       2.70292824       4.56560681  F       0.00000000       0.00000000       0.00000000
Pd       3.05359271       2.70292306       1.50000000  F       0.00000000       0.00000000       0.00000000
Pd       4.58039501       5.40584640       6.11658908  F       0.00000000       0.00000000       0.00000000
Pd       4.58040505      10.81168838       6.11658203  F       0.00000000       0.00000000       0.00000000
Pd       4.58038906       5.40584612       3.02679635  F       0.00000000       0.00000000       0.00000000
Pd       3.05359271       8.10876919       1.50000000  F       0.00000000       0.00000000       0.00000000
Pd       3.05200575       2.70030824       7.64968599  T       0.00000000       0.00000000       0.00000000
Pd       4.57440091      -0.00365969      12.01900121  T       0.00000000       0.00000000       0.00000000
Pd       3.04997168       2.69805086      10.76344457  T       0.00000000       0.00000000       0.00000000
Pd       3.05359569       8.10876742       4.56559865  F       0.00000000       0.00000000       0.00000000
Pd       6.10718542       2.70292306       1.50000000  F       0.00000000       0.00000000       0.00000000
Pd       7.63398177       0.00000000       3.02679635  F       0.00000000       0.00000000       0.00000000
Pd       1.52058856       5.40216341      12.02148376  T       0.00000000       0.00000000       0.00000000
Pd       6.10560764       8.10765225       7.65164873  T       0.00000000       0.00000000       0.00000000
Pd       0.00000079       8.10876600       4.56559869  F       0.00000000       0.00000000       0.00000000
Pd       6.10718651       8.10875952       4.56558968  F       0.00000000       0.00000000       0.00000000
Pd       1.52680247       5.40584247       6.11658534  F       0.00000000       0.00000000       0.00000000
Pd       7.63398177       5.40584612       3.02679635  F       0.00000000       0.00000000       0.00000000
Pd       6.10718542       8.10876919       1.50000000  F       0.00000000       0.00000000       0.00000000
Pd      -0.00211395       8.10768330       7.65133417  T       0.00000000       0.00000000       0.00000000
Pd       7.62806740      10.80580856      12.02483794  T       0.00000000       0.00000000       0.00000000
Pd       6.10322370       2.69811171      10.76097404  T       0.00000000       0.00000000       0.00000000
Pd       1.52270154       5.40128308       9.13985185  T       0.00000000       0.00000000       0.00000000
Pd       7.63198790      -0.00337974       9.14135950  T       0.00000000       0.00000000       0.00000000
Pd       6.10772196       2.70178528       7.64913825  T       0.00000000       0.00000000       0.00000000
Pd      12.21050730       8.10504859      10.76871781  T       0.00000000       0.00000000       0.00000000
Pd       7.63399583      10.81167532       6.11657540  F       0.00000000       0.00000000       0.00000000
Pd       6.10718592       2.70292523       4.56558724  F       0.00000000       0.00000000       0.00000000
Pd       1.52679635       5.40584612       3.02679635  F       0.00000000       0.00000000       0.00000000
Pd       0.00000000       2.70292306       1.50000000  F       0.00000000       0.00000000       0.00000000
C        9.90929313       6.93599411      15.02290868  T       0.00000000       0.00000000       0.00000000
O       10.12991037       8.04797117      15.19863918  T       0.00000000       0.00000000       0.00000000
