130
Lattice="12.21437083684855 0.0 7e-16 1.7e-15 10.811692246786171 7e-16 0.0 0.0 30.687574482242482" Properties=species:S:1:pos:R:3:move_mask:L:1:momenta:R:3 adsorbate_info="_JSON {\"site\": {\"coordinates\": [9.924184809303858, 0.6445565581886393, 12.046276980934888], \"connectivity\": 2, \"topology\": [28, 84], \"n_vector\": [0.04535202550861021, 0.08862694543714246, 0.9950318880944208], \"h_vector\": [-0.7621601865648842, 0.6435376176316393, 0.07050662882576934], \"site_formula\": {\"O\": 1, \"Pd\": 1}}, \"smiles\": \"Cl[C]=O\", \"mdf\": 2.347210606530397, \"adsorbate_formula\": \"CO\"}" mace_E=-687.9484771888582 converged=T n_steps=49 d_min=3.163005567529982 site_type=unknown dE_rel_meV=0 original_idx=105 rank=134 E_MACE=-687.8216457496799 pbc="T T T"
O        3.07321317       6.70682882      12.17097556  T       0.00000000       0.00000000       0.00000000
O        6.13483894       1.29944790      12.15761916  T       0.00000000       0.00000000       0.00000000
O        6.12694723       4.09934080      12.15714556  T       0.00000000       0.00000000       0.00000000
O        6.12307510       1.35044078       9.16254355  T       0.00000000       0.00000000       0.00000000
O        6.12095299       4.04993782       9.16488848  T       0.00000000       0.00000000       0.00000000
O        6.10718343       1.35539432       6.10801899  F       0.00000000       0.00000000       0.00000000
O        6.10718534       4.05045008       6.10801162  F       0.00000000       0.00000000       0.00000000
O        6.10718542       1.35146153       3.02679635  F       0.00000000       0.00000000       0.00000000
O        6.10718542       4.05438459       3.02679635  F       0.00000000       0.00000000       0.00000000
O        9.18222274       9.49053509      12.17518584  T       0.00000000       0.00000000       0.00000000
O        3.07855160       9.50420735      12.16505830  T       0.00000000       0.00000000       0.00000000
O        3.06595164       6.75804219       9.16795274  T       0.00000000       0.00000000       0.00000000
O        3.06683373       9.45457672       9.16898503  T       0.00000000       0.00000000       0.00000000
O        3.05359341       6.76124998       6.10801980  F       0.00000000       0.00000000       0.00000000
O        3.05359360       9.45629444       6.10802097  F       0.00000000       0.00000000       0.00000000
O        3.05359271       6.75730765       3.02679635  F       0.00000000       0.00000000       0.00000000
O        3.05359271       9.46023072       3.02679635  F       0.00000000       0.00000000       0.00000000
O        3.07947285       1.29923664      12.16312945  T       0.00000000       0.00000000       0.00000000
O        6.10718542       9.46023072       3.02679635  F       0.00000000       0.00000000       0.00000000
O        6.10718542       6.75730765       3.02679635  F       0.00000000       0.00000000       0.00000000
O        6.10718028       9.45628983       6.10801454  F       0.00000000       0.00000000       0.00000000
O        6.10718760       6.76124043       6.10802244  F       0.00000000       0.00000000       0.00000000
O        9.17359525       6.75999120       9.16888034  T       0.00000000       0.00000000       0.00000000
O        9.17729709       9.45512742       9.17105053  T       0.00000000       0.00000000       0.00000000
O        9.16078073       6.76123572       6.10801818  F       0.00000000       0.00000000       0.00000000
O        9.16078059       9.45627785       6.10801483  F       0.00000000       0.00000000       0.00000000
O        9.16077813       6.75730765       3.02679635  F       0.00000000       0.00000000       0.00000000
O        9.16077813       9.46023072       3.02679635  F       0.00000000       0.00000000       0.00000000
O        9.17811823       1.31865714      12.17188077  T       0.00000000       0.00000000       0.00000000
O        9.17969036       4.10180035      12.16738161  T       0.00000000       0.00000000       0.00000000
O        3.07169317       4.09750066      12.17036122  T       0.00000000       0.00000000       0.00000000
O        9.17602456       1.35393807       9.16892613  T       0.00000000       0.00000000       0.00000000
O        9.16077827       1.35539012       6.10801450  F       0.00000000       0.00000000       0.00000000
O        9.16078421       4.05045012       6.10800209  F       0.00000000       0.00000000       0.00000000
O        9.16077813       1.35146153       3.02679635  F       0.00000000       0.00000000       0.00000000
O        9.16077813       4.05438459       3.02679635  F       0.00000000       0.00000000       0.00000000
O        6.12464850       6.70588472      12.16172602  T       0.00000000       0.00000000       0.00000000
O        6.13625270       9.50448107      12.16224677  T       0.00000000       0.00000000       0.00000000
O        6.11946602       6.75779217       9.16526673  T       0.00000000       0.00000000       0.00000000
O        6.12213709       9.45541734       9.16591653  T       0.00000000       0.00000000       0.00000000
O        9.17413089       4.05085505       9.16753765  T       0.00000000       0.00000000       0.00000000
O        3.06819773       1.35285922       9.16733275  T       0.00000000       0.00000000       0.00000000
O        9.17971548       6.70807262      12.17051402  T       0.00000000       0.00000000       0.00000000
O       12.24420125       9.49459698      12.15955130  T       0.00000000       0.00000000       0.00000000
O        0.00000000       6.75730765       3.02679635  F       0.00000000       0.00000000       0.00000000
O        3.06499946       4.04916001       9.16919184  T       0.00000000       0.00000000       0.00000000
O        0.03391771       1.31436019      12.16337532  T       0.00000000       0.00000000       0.00000000
O        0.00000951       9.45630243       6.10801529  F       0.00000000       0.00000000       0.00000000
O       12.23426742       4.10009001      12.16492574  T       0.00000000       0.00000000       0.00000000
O        0.00000182       6.76124509       6.10800952  F       0.00000000       0.00000000       0.00000000
O        0.01251513       9.45662145       9.16812119  T       0.00000000       0.00000000       0.00000000
O        0.01167617       1.35252041       9.16684107  T       0.00000000       0.00000000       0.00000000
O        0.01351169       6.75917377       9.16706293  T       0.00000000       0.00000000       0.00000000
O       12.22757760       4.05055896       9.16820708  T       0.00000000       0.00000000       0.00000000
O       12.23445383       6.70914295      12.16585182  T       0.00000000       0.00000000       0.00000000
O        0.00000448       1.35539672       6.10801283  F       0.00000000       0.00000000       0.00000000
O        0.00000331       4.05045002       6.10801189  F       0.00000000       0.00000000       0.00000000
O        3.05359271       4.05438459       3.02679635  F       0.00000000       0.00000000       0.00000000
O        0.00000000       9.46023072       3.02679635  F       0.00000000       0.00000000       0.00000000
O        3.05359105       4.05044320       6.10802763  F       0.00000000       0.00000000       0.00000000
O        3.05359271       1.35146153       3.02679635  F       0.00000000       0.00000000       0.00000000
O        3.05359652       1.35540103       6.10801944  F       0.00000000       0.00000000       0.00000000
O        0.00000000       4.05438459       3.02679635  F       0.00000000       0.00000000       0.00000000
O        0.00000000       1.35146153       3.02679635  F       0.00000000       0.00000000       0.00000000
Pd       7.65372455       5.40462901      12.01463349  T       0.00000000       0.00000000       0.00000000
Pd      10.70747307       5.40491698      12.01499893  T       0.00000000       0.00000000       0.00000000
Pd       0.00000000       8.10876919       1.50000000  F       0.00000000       0.00000000       0.00000000
Pd       9.17837579       8.10482085      10.76683343  T       0.00000000       0.00000000       0.00000000
Pd       1.52679635       0.00000000       3.02679635  F       0.00000000       0.00000000       0.00000000
Pd       9.16077813       2.70292306       1.50000000  F       0.00000000       0.00000000       0.00000000
Pd      10.68757448       0.00000000       3.02679635  F       0.00000000       0.00000000       0.00000000
Pd      10.70081886       5.40534337       9.13678015  T       0.00000000       0.00000000       0.00000000
Pd       1.55198789      -0.00292877      12.01357414  T       0.00000000       0.00000000       0.00000000
Pd       9.16077900       2.70292450       4.56559698  F       0.00000000       0.00000000       0.00000000
Pd      10.68756280      10.81168006       6.11657659  F       0.00000000       0.00000000       0.00000000
Pd       9.16077776       8.10875607       4.56559406  F       0.00000000       0.00000000       0.00000000
Pd       1.52678677       0.00000067       6.11658292  F       0.00000000       0.00000000       0.00000000
Pd       9.16975233       8.10905641       7.65043681  T       0.00000000       0.00000000       0.00000000
Pd       9.16895102       2.70228485       7.64941781  T       0.00000000       0.00000000       0.00000000
Pd      10.70133640      -0.00148469       9.14433443  T       0.00000000       0.00000000       0.00000000
Pd       0.00000135       2.70292705       4.56560641  F       0.00000000       0.00000000       0.00000000
Pd       1.54103551      10.81052018       9.13750773  T       0.00000000       0.00000000       0.00000000
Pd       9.17592659       2.70462239      10.76431028  T       0.00000000       0.00000000       0.00000000
Pd       6.12631111       8.10534861      10.76158645  T       0.00000000       0.00000000       0.00000000
Pd      10.71043408      10.81285319      12.04962509  T       0.00000000       0.00000000       0.00000000
Pd       0.00580648       2.70124860       7.64930965  T       0.00000000       0.00000000       0.00000000
Pd      10.68757280       5.40584816       6.11657764  F       0.00000000       0.00000000       0.00000000
Pd       9.16077813       8.10876919       1.50000000  F       0.00000000       0.00000000       0.00000000
Pd      10.68757448       5.40584612       3.02679635  F       0.00000000       0.00000000       0.00000000
Pd      12.23557932       2.70481285      10.75981105  T       0.00000000       0.00000000       0.00000000
Pd       4.59440922      -0.00293272       9.13675512  T       0.00000000       0.00000000       0.00000000
Pd       7.63397856       5.40585179       6.11657833  F       0.00000000       0.00000000       0.00000000
Pd       7.64728122       5.40487785       9.13489053  T       0.00000000       0.00000000       0.00000000
Pd       4.59785288       5.40179045      12.01580314  T       0.00000000       0.00000000       0.00000000
Pd       3.07212520       8.10457784      10.76620852  T       0.00000000       0.00000000       0.00000000
Pd       4.58038906       0.00000000       3.02679635  F       0.00000000       0.00000000       0.00000000
Pd       4.59252961       5.40343374       9.13673832  T       0.00000000       0.00000000       0.00000000
Pd       3.06039913       8.10786726       7.65053218  T       0.00000000       0.00000000       0.00000000
Pd       3.05359494       2.70292824       4.56560681  F       0.00000000       0.00000000       0.00000000
Pd       3.05359271       2.70292306       1.50000000  F       0.00000000       0.00000000       0.00000000
Pd       4.58039501       5.40584640       6.11658908  F       0.00000000       0.00000000       0.00000000
Pd       4.58040505      10.81168838       6.11658203  F       0.00000000       0.00000000       0.00000000
Pd       4.58038906       5.40584612       3.02679635  F       0.00000000       0.00000000       0.00000000
Pd       3.05359271       8.10876919       1.50000000  F       0.00000000       0.00000000       0.00000000
Pd       3.05959405       2.70180657       7.65043272  T       0.00000000       0.00000000       0.00000000
Pd       4.60843511      -0.00483569      12.01179043  T       0.00000000       0.00000000       0.00000000
Pd       3.07186437       2.70087358      10.76564390  T       0.00000000       0.00000000       0.00000000
Pd       3.05359569       8.10876742       4.56559865  F       0.00000000       0.00000000       0.00000000
Pd       6.10718542       2.70292306       1.50000000  F       0.00000000       0.00000000       0.00000000
Pd       7.63398177       0.00000000       3.02679635  F       0.00000000       0.00000000       0.00000000
Pd       1.54599785       5.40340415      12.01951848  T       0.00000000       0.00000000       0.00000000
Pd       6.11339403       8.10768297       7.64889111  T       0.00000000       0.00000000       0.00000000
Pd       0.00000079       8.10876600       4.56559869  F       0.00000000       0.00000000       0.00000000
Pd       6.10718651       8.10875952       4.56558968  F       0.00000000       0.00000000       0.00000000
Pd       1.52680247       5.40584247       6.11658534  F       0.00000000       0.00000000       0.00000000
Pd       7.63398177       5.40584612       3.02679635  F       0.00000000       0.00000000       0.00000000
Pd       6.10718542       8.10876919       1.50000000  F       0.00000000       0.00000000       0.00000000
Pd       0.00562725       8.10952029       7.64931323  T       0.00000000       0.00000000       0.00000000
Pd       7.66498827      10.80888457      12.01718824  T       0.00000000       0.00000000       0.00000000
Pd       6.12742364       2.69903366      10.75789820  T       0.00000000       0.00000000       0.00000000
Pd       1.53945238       5.40401515       9.13836722  T       0.00000000       0.00000000       0.00000000
Pd       7.64983621      -0.00232774       9.13672903  T       0.00000000       0.00000000       0.00000000
Pd       6.11432241       2.70203813       7.64804024  T       0.00000000       0.00000000       0.00000000
Pd      12.23514564       8.10350490      10.75900375  T       0.00000000       0.00000000       0.00000000
Pd       7.63399583      10.81167532       6.11657540  F       0.00000000       0.00000000       0.00000000
Pd       6.10718592       2.70292523       4.56558724  F       0.00000000       0.00000000       0.00000000
Pd       1.52679635       5.40584612       3.02679635  F       0.00000000       0.00000000       0.00000000
Pd       0.00000000       2.70292306       1.50000000  F       0.00000000       0.00000000       0.00000000
C       10.92342604       0.01097173      14.49741859  T       0.00000000       0.00000000       0.00000000
O       11.95625754      -0.12483816      14.99180785  T       0.00000000       0.00000000       0.00000000
