130
Lattice="12.21437083684855 0.0 7e-16 1.7e-15 10.811692246786171 7e-16 0.0 0.0 30.687574482242482" Properties=species:S:1:pos:R:3:move_mask:L:1:momenta:R:3 adsorbate_info="_JSON {\"site\": {\"coordinates\": [1.5267534612590625, 6.694921725550547, 12.116898595874666], \"connectivity\": 2, \"topology\": [0, 54], \"n_vector\": [0.0004907133483974877, 0.10898058444892038, 0.9940437572931996], \"h_vector\": [0.9999999997231436, -1.9596778813135974e-05, -1.3026089676927031e-05], \"site_formula\": {\"O\": 2}}, \"smiles\": \"Cl[C]=O\", \"mdf\": 2.311788052672233, \"adsorbate_formula\": \"CO\"}" mace_E=-687.8414993523193 converged=T n_steps=20 d_min=2.468343523134163 site_type=atop dE_rel_meV=0 original_idx=16 rank=4 E_MACE=-687.9463491547693 pbc="T T T"
O        3.05569556       6.69854526      12.14799338  T       0.00000000       0.00000000       0.00000000
O        6.10769613       1.29960156      12.16713141  T       0.00000000       0.00000000       0.00000000
O        6.11504959       4.09422903      12.18240841  T       0.00000000       0.00000000       0.00000000
O        6.10593709       1.35760144       9.16913259  T       0.00000000       0.00000000       0.00000000
O        6.10889876       4.05184697       9.17140149  T       0.00000000       0.00000000       0.00000000
O        6.10718343       1.35539432       6.10801899  F       0.00000000       0.00000000       0.00000000
O        6.10718534       4.05045008       6.10801162  F       0.00000000       0.00000000       0.00000000
O        6.10718542       1.35146153       3.02679635  F       0.00000000       0.00000000       0.00000000
O        6.10718542       4.05438459       3.02679635  F       0.00000000       0.00000000       0.00000000
O        9.16158368       9.50236241      12.16262222  T       0.00000000       0.00000000       0.00000000
O        3.05462320       9.49928969      12.16270850  T       0.00000000       0.00000000       0.00000000
O        3.05618241       6.75930216       9.16125274  T       0.00000000       0.00000000       0.00000000
O        3.05525337       9.46099678       9.16530978  T       0.00000000       0.00000000       0.00000000
O        3.05359341       6.76124998       6.10801980  F       0.00000000       0.00000000       0.00000000
O        3.05359360       9.45629444       6.10802097  F       0.00000000       0.00000000       0.00000000
O        3.05359271       6.75730765       3.02679635  F       0.00000000       0.00000000       0.00000000
O        3.05359271       9.46023072       3.02679635  F       0.00000000       0.00000000       0.00000000
O        3.05428346       1.29668919      12.17383181  T       0.00000000       0.00000000       0.00000000
O        6.10718542       9.46023072       3.02679635  F       0.00000000       0.00000000       0.00000000
O        6.10718542       6.75730765       3.02679635  F       0.00000000       0.00000000       0.00000000
O        6.10718028       9.45628983       6.10801454  F       0.00000000       0.00000000       0.00000000
O        6.10718760       6.76124043       6.10802244  F       0.00000000       0.00000000       0.00000000
O        9.16043083       6.76137054       9.16085510  T       0.00000000       0.00000000       0.00000000
O        9.15807972       9.46316792       9.16369776  T       0.00000000       0.00000000       0.00000000
O        9.16078073       6.76123572       6.10801818  F       0.00000000       0.00000000       0.00000000
O        9.16078059       9.45627785       6.10801483  F       0.00000000       0.00000000       0.00000000
O        9.16077813       6.75730765       3.02679635  F       0.00000000       0.00000000       0.00000000
O        9.16077813       9.46023072       3.02679635  F       0.00000000       0.00000000       0.00000000
O        9.16431287       1.29808415      12.17447186  T       0.00000000       0.00000000       0.00000000
O        9.16546279       4.09235427      12.17320085  T       0.00000000       0.00000000       0.00000000
O        3.05734595       4.09432767      12.17789663  T       0.00000000       0.00000000       0.00000000
O        9.15524085       1.35662709       9.16905524  T       0.00000000       0.00000000       0.00000000
O        9.16077827       1.35539012       6.10801450  F       0.00000000       0.00000000       0.00000000
O        9.16078421       4.05045012       6.10800209  F       0.00000000       0.00000000       0.00000000
O        9.16077813       1.35146153       3.02679635  F       0.00000000       0.00000000       0.00000000
O        9.16077813       4.05438459       3.02679635  F       0.00000000       0.00000000       0.00000000
O        6.11213873       6.70402941      12.16330407  T       0.00000000       0.00000000       0.00000000
O        6.10972333       9.50423484      12.16652806  T       0.00000000       0.00000000       0.00000000
O        6.10786950       6.76066438       9.16737416  T       0.00000000       0.00000000       0.00000000
O        6.10704847       9.45733108       9.16797237  T       0.00000000       0.00000000       0.00000000
O        9.15726726       4.05200935       9.17155916  T       0.00000000       0.00000000       0.00000000
O        3.05973051       1.35765689       9.17039832  T       0.00000000       0.00000000       0.00000000
O        9.17201288       6.70120467      12.14427791  T       0.00000000       0.00000000       0.00000000
O       12.21578419       9.50127527      12.13182949  T       0.00000000       0.00000000       0.00000000
O        0.00000000       6.75730765       3.02679635  F       0.00000000       0.00000000       0.00000000
O        3.05969655       4.05068484       9.17309183  T       0.00000000       0.00000000       0.00000000
O        0.00224829       1.29614037      12.15136384  T       0.00000000       0.00000000       0.00000000
O        0.00000951       9.45630243       6.10801529  F       0.00000000       0.00000000       0.00000000
O       12.21743242       4.08893084      12.14262608  T       0.00000000       0.00000000       0.00000000
O        0.00000182       6.76124509       6.10800952  F       0.00000000       0.00000000       0.00000000
O        0.00009828       9.46295178       9.15133722  T       0.00000000       0.00000000       0.00000000
O        0.00010057       1.35042733       9.15180337  T       0.00000000       0.00000000       0.00000000
O        0.00153964       6.75056584       9.14259059  T       0.00000000       0.00000000       0.00000000
O       12.21535604       4.05279626       9.15484275  T       0.00000000       0.00000000       0.00000000
O       12.21811552       6.70165744      12.12129486  T       0.00000000       0.00000000       0.00000000
O        0.00000448       1.35539672       6.10801283  F       0.00000000       0.00000000       0.00000000
O        0.00000331       4.05045002       6.10801189  F       0.00000000       0.00000000       0.00000000
O        3.05359271       4.05438459       3.02679635  F       0.00000000       0.00000000       0.00000000
O        0.00000000       9.46023072       3.02679635  F       0.00000000       0.00000000       0.00000000
O        3.05359105       4.05044320       6.10802763  F       0.00000000       0.00000000       0.00000000
O        3.05359271       1.35146153       3.02679635  F       0.00000000       0.00000000       0.00000000
O        3.05359652       1.35540103       6.10801944  F       0.00000000       0.00000000       0.00000000
O        0.00000000       4.05438459       3.02679635  F       0.00000000       0.00000000       0.00000000
O        0.00000000       1.35146153       3.02679635  F       0.00000000       0.00000000       0.00000000
Pd       7.63943571       5.39881542      12.01440972  T       0.00000000       0.00000000       0.00000000
Pd      10.69194079       5.39204926      11.98407819  T       0.00000000       0.00000000       0.00000000
Pd       0.00000000       8.10876919       1.50000000  F       0.00000000       0.00000000       0.00000000
Pd       9.16381704       8.10988724      10.75420192  T       0.00000000       0.00000000       0.00000000
Pd       1.52679635       0.00000000       3.02679635  F       0.00000000       0.00000000       0.00000000
Pd       9.16077813       2.70292306       1.50000000  F       0.00000000       0.00000000       0.00000000
Pd      10.68757448       0.00000000       3.02679635  F       0.00000000       0.00000000       0.00000000
Pd      10.68554294       5.40375922       9.12601891  T       0.00000000       0.00000000       0.00000000
Pd       1.52946210      -0.00731765      11.99982824  T       0.00000000       0.00000000       0.00000000
Pd       9.16077900       2.70292450       4.56559698  F       0.00000000       0.00000000       0.00000000
Pd      10.68756280      10.81168006       6.11657659  F       0.00000000       0.00000000       0.00000000
Pd       9.16077776       8.10875607       4.56559406  F       0.00000000       0.00000000       0.00000000
Pd       1.52678677       0.00000067       6.11658292  F       0.00000000       0.00000000       0.00000000
Pd       9.15766729       8.11145846       7.64715176  T       0.00000000       0.00000000       0.00000000
Pd       9.15535923       2.70495446       7.65146000  T       0.00000000       0.00000000       0.00000000
Pd      10.68443401       0.00322585       9.13337194  T       0.00000000       0.00000000       0.00000000
Pd       0.00000135       2.70292705       4.56560641  F       0.00000000       0.00000000       0.00000000
Pd       1.53023055      10.81509942       9.13299593  T       0.00000000       0.00000000       0.00000000
Pd       9.15514038       2.69685102      10.76955226  T       0.00000000       0.00000000       0.00000000
Pd       6.10965474       8.10670277      10.76360744  T       0.00000000       0.00000000       0.00000000
Pd      10.68819248      10.80508326      12.00078631  T       0.00000000       0.00000000       0.00000000
Pd      -0.00034715       2.70371506       7.64215244  T       0.00000000       0.00000000       0.00000000
Pd      10.68757280       5.40584816       6.11657764  F       0.00000000       0.00000000       0.00000000
Pd       9.16077813       8.10876919       1.50000000  F       0.00000000       0.00000000       0.00000000
Pd      10.68757448       5.40584612       3.02679635  F       0.00000000       0.00000000       0.00000000
Pd      12.21704549       2.69264550      10.74466430  T       0.00000000       0.00000000       0.00000000
Pd       4.58219257       0.00179676       9.14252598  T       0.00000000       0.00000000       0.00000000
Pd       7.63397856       5.40585179       6.11657833  F       0.00000000       0.00000000       0.00000000
Pd       7.63380099       5.40702966       9.14373932  T       0.00000000       0.00000000       0.00000000
Pd       4.58727273       5.39640266      12.01661165  T       0.00000000       0.00000000       0.00000000
Pd       3.05396669       8.10575242      10.75518923  T       0.00000000       0.00000000       0.00000000
Pd       4.58038906       0.00000000       3.02679635  F       0.00000000       0.00000000       0.00000000
Pd       4.58291856       5.40578008       9.14329867  T       0.00000000       0.00000000       0.00000000
Pd       3.05671419       8.11061683       7.64777770  T       0.00000000       0.00000000       0.00000000
Pd       3.05359494       2.70292824       4.56560681  F       0.00000000       0.00000000       0.00000000
Pd       3.05359271       2.70292306       1.50000000  F       0.00000000       0.00000000       0.00000000
Pd       4.58039501       5.40584640       6.11658908  F       0.00000000       0.00000000       0.00000000
Pd       4.58040505      10.81168838       6.11658203  F       0.00000000       0.00000000       0.00000000
Pd       4.58038906       5.40584612       3.02679635  F       0.00000000       0.00000000       0.00000000
Pd       3.05359271       8.10876919       1.50000000  F       0.00000000       0.00000000       0.00000000
Pd       3.05955515       2.70474759       7.65208428  T       0.00000000       0.00000000       0.00000000
Pd       4.58118765      -0.00591330      12.01543381  T       0.00000000       0.00000000       0.00000000
Pd       3.06312503       2.69915056      10.77264553  T       0.00000000       0.00000000       0.00000000
Pd       3.05359569       8.10876742       4.56559865  F       0.00000000       0.00000000       0.00000000
Pd       6.10718542       2.70292306       1.50000000  F       0.00000000       0.00000000       0.00000000
Pd       7.63398177       0.00000000       3.02679635  F       0.00000000       0.00000000       0.00000000
Pd       1.53053532       5.39324534      11.99871583  T       0.00000000       0.00000000       0.00000000
Pd       6.10732418       8.10889251       7.64952696  T       0.00000000       0.00000000       0.00000000
Pd       0.00000079       8.10876600       4.56559869  F       0.00000000       0.00000000       0.00000000
Pd       6.10718651       8.10875952       4.56558968  F       0.00000000       0.00000000       0.00000000
Pd       1.52680247       5.40584247       6.11658534  F       0.00000000       0.00000000       0.00000000
Pd       7.63398177       5.40584612       3.02679635  F       0.00000000       0.00000000       0.00000000
Pd       6.10718542       8.10876919       1.50000000  F       0.00000000       0.00000000       0.00000000
Pd       0.00097452       8.10865969       7.63998913  T       0.00000000       0.00000000       0.00000000
Pd       7.63594763      10.80829250      12.01650959  T       0.00000000       0.00000000       0.00000000
Pd       6.11013481       2.70304568      10.76926653  T       0.00000000       0.00000000       0.00000000
Pd       1.53124954       5.40232573       9.12778985  T       0.00000000       0.00000000       0.00000000
Pd       7.63060479       0.00291660       9.14280719  T       0.00000000       0.00000000       0.00000000
Pd       6.10736726       2.70426236       7.65064267  T       0.00000000       0.00000000       0.00000000
Pd      12.21572175       8.10524654      10.73172570  T       0.00000000       0.00000000       0.00000000
Pd       7.63399583      10.81167532       6.11657540  F       0.00000000       0.00000000       0.00000000
Pd       6.10718592       2.70292523       4.56558724  F       0.00000000       0.00000000       0.00000000
Pd       1.52679635       5.40584612       3.02679635  F       0.00000000       0.00000000       0.00000000
Pd       0.00000000       2.70292306       1.50000000  F       0.00000000       0.00000000       0.00000000
C       -0.55448469       6.69592465      15.06716714  T       0.00000000       0.00000000       0.00000000
O       -0.25198699       5.60544624      15.26486868  T       0.00000000       0.00000000       0.00000000
