130
Lattice="12.21437083684855 0.0 7e-16 1.7e-15 10.811692246786171 7e-16 0.0 0.0 30.687574482242482" Properties=species:S:1:pos:R:3:move_mask:L:1:momenta:R:3 adsorbate_info="_JSON {\"site\": {\"coordinates\": [9.924199894431815, 4.761293629284792, 12.046284563368951], \"connectivity\": 2, \"topology\": [29, 65], \"n_vector\": [0.042044563739058946, -0.0852438251416947, 0.9954726239004288], \"h_vector\": [-0.7621812103924476, -0.6435128735522125, 0.0705052061714422], \"site_formula\": {\"O\": 1, \"Pd\": 1}}, \"smiles\": \"Cl[C]=O\", \"mdf\": 2.3770442181404103, \"adsorbate_formula\": \"CO\"}" mace_E=-687.9178130965299 converged=T n_steps=47 d_min=2.464985473493969 site_type=atop dE_rel_meV=0 original_idx=106 rank=2 E_MACE=-687.9470048199299 pbc="T T T"
O        3.07877207       6.71290904      12.17215216  T       0.00000000       0.00000000       0.00000000
O        6.12410196       1.30421867      12.15377275  T       0.00000000       0.00000000       0.00000000
O        6.13073916       4.10404095      12.15770084  T       0.00000000       0.00000000       0.00000000
O        6.11878885       1.35575385       9.16316754  T       0.00000000       0.00000000       0.00000000
O        6.11988781       4.05670640       9.16310150  T       0.00000000       0.00000000       0.00000000
O        6.10718343       1.35539432       6.10801899  F       0.00000000       0.00000000       0.00000000
O        6.10718534       4.05045008       6.10801162  F       0.00000000       0.00000000       0.00000000
O        6.10718542       1.35146153       3.02679635  F       0.00000000       0.00000000       0.00000000
O        6.10718542       4.05438459       3.02679635  F       0.00000000       0.00000000       0.00000000
O        9.17509783       9.50431404      12.18297035  T       0.00000000       0.00000000       0.00000000
O        3.07180371       9.50662394      12.18041501  T       0.00000000       0.00000000       0.00000000
O        3.06324455       6.76412095       9.17222100  T       0.00000000       0.00000000       0.00000000
O        3.06371144       9.45709178       9.17110976  T       0.00000000       0.00000000       0.00000000
O        3.05359341       6.76124998       6.10801980  F       0.00000000       0.00000000       0.00000000
O        3.05359360       9.45629444       6.10802097  F       0.00000000       0.00000000       0.00000000
O        3.05359271       6.75730765       3.02679635  F       0.00000000       0.00000000       0.00000000
O        3.05359271       9.46023072       3.02679635  F       0.00000000       0.00000000       0.00000000
O        3.06964098       1.30587965      12.17269020  T       0.00000000       0.00000000       0.00000000
O        6.10718542       9.46023072       3.02679635  F       0.00000000       0.00000000       0.00000000
O        6.10718542       6.75730765       3.02679635  F       0.00000000       0.00000000       0.00000000
O        6.10718028       9.45628983       6.10801454  F       0.00000000       0.00000000       0.00000000
O        6.10718760       6.76124043       6.10802244  F       0.00000000       0.00000000       0.00000000
O        9.17851180       6.76198584       9.18049302  T       0.00000000       0.00000000       0.00000000
O        9.17160254       9.45205265       9.17803363  T       0.00000000       0.00000000       0.00000000
O        9.16078073       6.76123572       6.10801818  F       0.00000000       0.00000000       0.00000000
O        9.16078059       9.45627785       6.10801483  F       0.00000000       0.00000000       0.00000000
O        9.16077813       6.75730765       3.02679635  F       0.00000000       0.00000000       0.00000000
O        9.16077813       9.46023072       3.02679635  F       0.00000000       0.00000000       0.00000000
O        9.17647532       1.29972957      12.17300297  T       0.00000000       0.00000000       0.00000000
O        9.17313831       4.08753395      12.18777622  T       0.00000000       0.00000000       0.00000000
O        3.08178217       4.10352968      12.16501231  T       0.00000000       0.00000000       0.00000000
O        9.17222026       1.35729829       9.17605764  T       0.00000000       0.00000000       0.00000000
O        9.16077827       1.35539012       6.10801450  F       0.00000000       0.00000000       0.00000000
O        9.16078421       4.05045012       6.10800209  F       0.00000000       0.00000000       0.00000000
O        9.16077813       1.35146153       3.02679635  F       0.00000000       0.00000000       0.00000000
O        9.16077813       4.05438459       3.02679635  F       0.00000000       0.00000000       0.00000000
O        6.13234071       6.71290725      12.17359548  T       0.00000000       0.00000000       0.00000000
O        6.12136094       9.50854039      12.16958075  T       0.00000000       0.00000000       0.00000000
O        6.12005937       6.76216534       9.16994189  T       0.00000000       0.00000000       0.00000000
O        6.11783753       9.45612460       9.16948977  T       0.00000000       0.00000000       0.00000000
O        9.17599991       4.05235621       9.17760180  T       0.00000000       0.00000000       0.00000000
O        3.06405812       1.35518749       9.16878258  T       0.00000000       0.00000000       0.00000000
O        9.18741342       6.71767925      12.19022643  T       0.00000000       0.00000000       0.00000000
O       12.23238489       9.50367628      12.18761448  T       0.00000000       0.00000000       0.00000000
O        0.00000000       6.75730765       3.02679635  F       0.00000000       0.00000000       0.00000000
O        3.06527170       4.05184925       9.16872340  T       0.00000000       0.00000000       0.00000000
O        0.01581217       1.30094352      12.17730626  T       0.00000000       0.00000000       0.00000000
O        0.00000951       9.45630243       6.10801529  F       0.00000000       0.00000000       0.00000000
O       12.25767096       4.08716995      12.18218353  T       0.00000000       0.00000000       0.00000000
O        0.00000182       6.76124509       6.10800952  F       0.00000000       0.00000000       0.00000000
O        0.01055127       9.45530791       9.17784105  T       0.00000000       0.00000000       0.00000000
O        0.00865494       1.35581657       9.17411850  T       0.00000000       0.00000000       0.00000000
O        0.01120094       6.76184477       9.17855717  T       0.00000000       0.00000000       0.00000000
O       12.22756951       4.04932157       9.17695855  T       0.00000000       0.00000000       0.00000000
O       12.24532288       6.71886401      12.18053537  T       0.00000000       0.00000000       0.00000000
O        0.00000448       1.35539672       6.10801283  F       0.00000000       0.00000000       0.00000000
O        0.00000331       4.05045002       6.10801189  F       0.00000000       0.00000000       0.00000000
O        3.05359271       4.05438459       3.02679635  F       0.00000000       0.00000000       0.00000000
O        0.00000000       9.46023072       3.02679635  F       0.00000000       0.00000000       0.00000000
O        3.05359105       4.05044320       6.10802763  F       0.00000000       0.00000000       0.00000000
O        3.05359271       1.35146153       3.02679635  F       0.00000000       0.00000000       0.00000000
O        3.05359652       1.35540103       6.10801944  F       0.00000000       0.00000000       0.00000000
O        0.00000000       4.05438459       3.02679635  F       0.00000000       0.00000000       0.00000000
O        0.00000000       1.35146153       3.02679635  F       0.00000000       0.00000000       0.00000000
Pd       7.66170068       5.40666506      12.03002707  T       0.00000000       0.00000000       0.00000000
Pd      10.71590150       5.39539084      12.06160706  T       0.00000000       0.00000000       0.00000000
Pd       0.00000000       8.10876919       1.50000000  F       0.00000000       0.00000000       0.00000000
Pd       9.17819626       8.10837617      10.77891575  T       0.00000000       0.00000000       0.00000000
Pd       1.52679635       0.00000000       3.02679635  F       0.00000000       0.00000000       0.00000000
Pd       9.16077813       2.70292306       1.50000000  F       0.00000000       0.00000000       0.00000000
Pd      10.68757448       0.00000000       3.02679635  F       0.00000000       0.00000000       0.00000000
Pd      10.70217859       5.40583812       9.15721714  T       0.00000000       0.00000000       0.00000000
Pd       1.54303601      -0.00186536      12.03335021  T       0.00000000       0.00000000       0.00000000
Pd       9.16077900       2.70292450       4.56559698  F       0.00000000       0.00000000       0.00000000
Pd      10.68756280      10.81168006       6.11657659  F       0.00000000       0.00000000       0.00000000
Pd       9.16077776       8.10875607       4.56559406  F       0.00000000       0.00000000       0.00000000
Pd       1.52678677       0.00000067       6.11658292  F       0.00000000       0.00000000       0.00000000
Pd       9.17038079       8.10718901       7.65454331  T       0.00000000       0.00000000       0.00000000
Pd       9.16928492       2.70466781       7.65444173  T       0.00000000       0.00000000       0.00000000
Pd      10.69718967      -0.00132798       9.15056748  T       0.00000000       0.00000000       0.00000000
Pd       0.00000135       2.70292705       4.56560641  F       0.00000000       0.00000000       0.00000000
Pd       1.53648017      10.81195347       9.14451963  T       0.00000000       0.00000000       0.00000000
Pd       9.17259120       2.70293323      10.77571922  T       0.00000000       0.00000000       0.00000000
Pd       6.12168732       8.10913688      10.76916549  T       0.00000000       0.00000000       0.00000000
Pd      10.70423602      10.80685088      12.03259348  T       0.00000000       0.00000000       0.00000000
Pd       0.00370492       2.70404429       7.65322293  T       0.00000000       0.00000000       0.00000000
Pd      10.68757280       5.40584816       6.11657764  F       0.00000000       0.00000000       0.00000000
Pd       9.16077813       8.10876919       1.50000000  F       0.00000000       0.00000000       0.00000000
Pd      10.68757448       5.40584612       3.02679635  F       0.00000000       0.00000000       0.00000000
Pd      12.23743216       2.69922855      10.77449691  T       0.00000000       0.00000000       0.00000000
Pd       4.59131352       0.00022386       9.13894422  T       0.00000000       0.00000000       0.00000000
Pd       7.63397856       5.40585179       6.11657833  F       0.00000000       0.00000000       0.00000000
Pd       7.64868877       5.40910164       9.14415047  T       0.00000000       0.00000000       0.00000000
Pd       4.60660069       5.40952346      12.01526204  T       0.00000000       0.00000000       0.00000000
Pd       3.06901529       8.11218944      10.77223616  T       0.00000000       0.00000000       0.00000000
Pd       4.58038906       0.00000000       3.02679635  F       0.00000000       0.00000000       0.00000000
Pd       4.59119031       5.40938077       9.13897691  T       0.00000000       0.00000000       0.00000000
Pd       3.05650162       8.10912432       7.65188163  T       0.00000000       0.00000000       0.00000000
Pd       3.05359494       2.70292824       4.56560681  F       0.00000000       0.00000000       0.00000000
Pd       3.05359271       2.70292306       1.50000000  F       0.00000000       0.00000000       0.00000000
Pd       4.58039501       5.40584640       6.11658908  F       0.00000000       0.00000000       0.00000000
Pd       4.58040505      10.81168838       6.11658203  F       0.00000000       0.00000000       0.00000000
Pd       4.58038906       5.40584612       3.02679635  F       0.00000000       0.00000000       0.00000000
Pd       3.05359271       8.10876919       1.50000000  F       0.00000000       0.00000000       0.00000000
Pd       3.05829733       2.70371793       7.65072272  T       0.00000000       0.00000000       0.00000000
Pd       4.59509425       0.00099337      12.01706073  T       0.00000000       0.00000000       0.00000000
Pd       3.07134776       2.70190022      10.76678773  T       0.00000000       0.00000000       0.00000000
Pd       3.05359569       8.10876742       4.56559865  F       0.00000000       0.00000000       0.00000000
Pd       6.10718542       2.70292306       1.50000000  F       0.00000000       0.00000000       0.00000000
Pd       7.63398177       0.00000000       3.02679635  F       0.00000000       0.00000000       0.00000000
Pd       1.55414011       5.40613192      12.02435345  T       0.00000000       0.00000000       0.00000000
Pd       6.11360857       8.10873753       7.65093167  T       0.00000000       0.00000000       0.00000000
Pd       0.00000079       8.10876600       4.56559869  F       0.00000000       0.00000000       0.00000000
Pd       6.10718651       8.10875952       4.56558968  F       0.00000000       0.00000000       0.00000000
Pd       1.52680247       5.40584247       6.11658534  F       0.00000000       0.00000000       0.00000000
Pd       7.63398177       5.40584612       3.02679635  F       0.00000000       0.00000000       0.00000000
Pd       6.10718542       8.10876919       1.50000000  F       0.00000000       0.00000000       0.00000000
Pd       0.00409176       8.10726585       7.65454770  T       0.00000000       0.00000000       0.00000000
Pd       7.65050679      10.80930784      12.01757249  T       0.00000000       0.00000000       0.00000000
Pd       6.12332351       2.70578217      10.75588605  T       0.00000000       0.00000000       0.00000000
Pd       1.53896103       5.40674461       9.14467226  T       0.00000000       0.00000000       0.00000000
Pd       7.64595149      -0.00057622       9.14313649  T       0.00000000       0.00000000       0.00000000
Pd       6.11422059       2.70514860       7.64765140  T       0.00000000       0.00000000       0.00000000
Pd      12.23464838       8.11450261      10.77631183  T       0.00000000       0.00000000       0.00000000
Pd       7.63399583      10.81167532       6.11657540  F       0.00000000       0.00000000       0.00000000
Pd       6.10718592       2.70292523       4.56558724  F       0.00000000       0.00000000       0.00000000
Pd       1.52679635       5.40584612       3.02679635  F       0.00000000       0.00000000       0.00000000
Pd       0.00000000       2.70292306       1.50000000  F       0.00000000       0.00000000       0.00000000
C       10.73939437       5.47437045      14.52793511  T       0.00000000       0.00000000       0.00000000
O       10.74375020       6.44765681      15.14338237  T       0.00000000       0.00000000       0.00000000
