130
Lattice="12.21437083684855 0.0 7e-16 1.7e-15 10.811692246786171 7e-16 0.0 0.0 30.687574482242482" Properties=species:S:1:pos:R:3:move_mask:L:1:momenta:R:3 adsorbate_info="_JSON {\"site\": {\"coordinates\": [1.526784357419515, 1.2890993191426774, 12.116895219564158], \"connectivity\": 2, \"topology\": [17, 46], \"n_vector\": [-0.00047784055814125716, 0.12014916941683253, 0.9927557346884712], \"h_vector\": [-0.9999999999971725, 2.3743104376282536e-06, -1.3290404157654526e-07], \"site_formula\": {\"O\": 2}}, \"smiles\": \"Cl[C]=O\", \"mdf\": 2.2169409617867957, \"adsorbate_formula\": \"CO\"}" mace_E=-687.844073453126 converged=T n_steps=42 d_min=3.1000955482096075 site_type=atop dE_rel_meV=0 original_idx=10 rank=132 E_MACE=-687.8241970168092 pbc="T T T"
O        3.04929274       6.70232986      12.17548837  T       0.00000000       0.00000000       0.00000000
O        6.10129769       1.30073594      12.17286600  T       0.00000000       0.00000000       0.00000000
O        6.10602785       4.09561957      12.16978192  T       0.00000000       0.00000000       0.00000000
O        6.10350062       1.35126811       9.16905336  T       0.00000000       0.00000000       0.00000000
O        6.10385363       4.04725477       9.17115419  T       0.00000000       0.00000000       0.00000000
O        6.10718343       1.35539432       6.10801899  F       0.00000000       0.00000000       0.00000000
O        6.10718534       4.05045008       6.10801162  F       0.00000000       0.00000000       0.00000000
O        6.10718542       1.35146153       3.02679635  F       0.00000000       0.00000000       0.00000000
O        6.10718542       4.05438459       3.02679635  F       0.00000000       0.00000000       0.00000000
O        9.15494517       9.50260867      12.16382047  T       0.00000000       0.00000000       0.00000000
O        3.04722637       9.49937542      12.16953962  T       0.00000000       0.00000000       0.00000000
O        3.05136495       6.75746829       9.17080414  T       0.00000000       0.00000000       0.00000000
O        3.05045908       9.45372300       9.17350027  T       0.00000000       0.00000000       0.00000000
O        3.05359341       6.76124998       6.10801980  F       0.00000000       0.00000000       0.00000000
O        3.05359360       9.45629444       6.10802097  F       0.00000000       0.00000000       0.00000000
O        3.05359271       6.75730765       3.02679635  F       0.00000000       0.00000000       0.00000000
O        3.05359271       9.46023072       3.02679635  F       0.00000000       0.00000000       0.00000000
O        3.04499215       1.29840834      12.15596878  T       0.00000000       0.00000000       0.00000000
O        6.10718542       9.46023072       3.02679635  F       0.00000000       0.00000000       0.00000000
O        6.10718542       6.75730765       3.02679635  F       0.00000000       0.00000000       0.00000000
O        6.10718028       9.45628983       6.10801454  F       0.00000000       0.00000000       0.00000000
O        6.10718760       6.76124043       6.10802244  F       0.00000000       0.00000000       0.00000000
O        9.15820089       6.75504792       9.16503925  T       0.00000000       0.00000000       0.00000000
O        9.15757677       9.45303896       9.16774089  T       0.00000000       0.00000000       0.00000000
O        9.16078073       6.76123572       6.10801818  F       0.00000000       0.00000000       0.00000000
O        9.16078059       9.45627785       6.10801483  F       0.00000000       0.00000000       0.00000000
O        9.16077813       6.75730765       3.02679635  F       0.00000000       0.00000000       0.00000000
O        9.16077813       9.46023072       3.02679635  F       0.00000000       0.00000000       0.00000000
O        9.15478957       1.29988523      12.17117610  T       0.00000000       0.00000000       0.00000000
O        9.15636625       4.09713923      12.16712668  T       0.00000000       0.00000000       0.00000000
O        3.04561824       4.09349996      12.17178723  T       0.00000000       0.00000000       0.00000000
O        9.15752327       1.34921119       9.16810064  T       0.00000000       0.00000000       0.00000000
O        9.16077827       1.35539012       6.10801450  F       0.00000000       0.00000000       0.00000000
O        9.16078421       4.05045012       6.10800209  F       0.00000000       0.00000000       0.00000000
O        9.16077813       1.35146153       3.02679635  F       0.00000000       0.00000000       0.00000000
O        9.16077813       4.05438459       3.02679635  F       0.00000000       0.00000000       0.00000000
O        6.10173294       6.70307541      12.16287636  T       0.00000000       0.00000000       0.00000000
O        6.10340316       9.49944949      12.16519755  T       0.00000000       0.00000000       0.00000000
O        6.10389460       6.75608972       9.16564560  T       0.00000000       0.00000000       0.00000000
O        6.10143706       9.45477754       9.16887298  T       0.00000000       0.00000000       0.00000000
O        9.15807939       4.04601212       9.16982689  T       0.00000000       0.00000000       0.00000000
O        3.05025368       1.35267095       9.16756123  T       0.00000000       0.00000000       0.00000000
O        9.15626505       6.70659693      12.16550935  T       0.00000000       0.00000000       0.00000000
O       12.20493976       9.49929434      12.16482115  T       0.00000000       0.00000000       0.00000000
O        0.00000000       6.75730765       3.02679635  F       0.00000000       0.00000000       0.00000000
O        3.05091117       4.04868288       9.17094759  T       0.00000000       0.00000000       0.00000000
O       -0.00646978       1.29933424      12.17136840  T       0.00000000       0.00000000       0.00000000
O        0.00000951       9.45630243       6.10801529  F       0.00000000       0.00000000       0.00000000
O       12.20780526       4.09695016      12.16993506  T       0.00000000       0.00000000       0.00000000
O        0.00000182       6.76124509       6.10800952  F       0.00000000       0.00000000       0.00000000
O       -0.00102317       9.45489252       9.16770850  T       0.00000000       0.00000000       0.00000000
O       -0.00301489       1.35175964       9.16921693  T       0.00000000       0.00000000       0.00000000
O       -0.00234884       6.75602790       9.16462093  T       0.00000000       0.00000000       0.00000000
O       12.21267678       4.04752158       9.17088685  T       0.00000000       0.00000000       0.00000000
O       12.20900466       6.70519115      12.16314374  T       0.00000000       0.00000000       0.00000000
O        0.00000448       1.35539672       6.10801283  F       0.00000000       0.00000000       0.00000000
O        0.00000331       4.05045002       6.10801189  F       0.00000000       0.00000000       0.00000000
O        3.05359271       4.05438459       3.02679635  F       0.00000000       0.00000000       0.00000000
O        0.00000000       9.46023072       3.02679635  F       0.00000000       0.00000000       0.00000000
O        3.05359105       4.05044320       6.10802763  F       0.00000000       0.00000000       0.00000000
O        3.05359271       1.35146153       3.02679635  F       0.00000000       0.00000000       0.00000000
O        3.05359652       1.35540103       6.10801944  F       0.00000000       0.00000000       0.00000000
O        0.00000000       4.05438459       3.02679635  F       0.00000000       0.00000000       0.00000000
O        0.00000000       1.35146153       3.02679635  F       0.00000000       0.00000000       0.00000000
Pd       7.63039154       5.40139243      12.01773532  T       0.00000000       0.00000000       0.00000000
Pd      10.68217082       5.40175864      12.01835869  T       0.00000000       0.00000000       0.00000000
Pd       0.00000000       8.10876919       1.50000000  F       0.00000000       0.00000000       0.00000000
Pd       9.15712058       8.10367836      10.76294174  T       0.00000000       0.00000000       0.00000000
Pd       1.52679635       0.00000000       3.02679635  F       0.00000000       0.00000000       0.00000000
Pd       9.16077813       2.70292306       1.50000000  F       0.00000000       0.00000000       0.00000000
Pd      10.68757448       0.00000000       3.02679635  F       0.00000000       0.00000000       0.00000000
Pd      10.68516034       5.40064534       9.13774349  T       0.00000000       0.00000000       0.00000000
Pd       1.51894115      -0.01066185      12.02181290  T       0.00000000       0.00000000       0.00000000
Pd       9.16077900       2.70292450       4.56559698  F       0.00000000       0.00000000       0.00000000
Pd      10.68756280      10.81168006       6.11657659  F       0.00000000       0.00000000       0.00000000
Pd       9.16077776       8.10875607       4.56559406  F       0.00000000       0.00000000       0.00000000
Pd       1.52678677       0.00000067       6.11658292  F       0.00000000       0.00000000       0.00000000
Pd       9.15925899       8.10654152       7.64985144  T       0.00000000       0.00000000       0.00000000
Pd       9.15909209       2.70036990       7.65135822  T       0.00000000       0.00000000       0.00000000
Pd      10.68496639      -0.00404298       9.13889710  T       0.00000000       0.00000000       0.00000000
Pd       0.00000135       2.70292705       4.56560641  F       0.00000000       0.00000000       0.00000000
Pd       1.52432628      10.80948493       9.14070004  T       0.00000000       0.00000000       0.00000000
Pd       9.15705465       2.69671160      10.76785995  T       0.00000000       0.00000000       0.00000000
Pd       6.10134822       8.10322254      10.76272997  T       0.00000000       0.00000000       0.00000000
Pd      10.68103489      10.80797063      12.02031286  T       0.00000000       0.00000000       0.00000000
Pd      -0.00115217       2.70171738       7.65174790  T       0.00000000       0.00000000       0.00000000
Pd      10.68757280       5.40584816       6.11657764  F       0.00000000       0.00000000       0.00000000
Pd       9.16077813       8.10876919       1.50000000  F       0.00000000       0.00000000       0.00000000
Pd      10.68757448       5.40584612       3.02679635  F       0.00000000       0.00000000       0.00000000
Pd      12.20913024       2.69826625      10.76880147  T       0.00000000       0.00000000       0.00000000
Pd       4.57611307      -0.00251919       9.14109556  T       0.00000000       0.00000000       0.00000000
Pd       7.63397856       5.40585179       6.11657833  F       0.00000000       0.00000000       0.00000000
Pd       7.63111597       5.40072219       9.13847872  T       0.00000000       0.00000000       0.00000000
Pd       4.57524867       5.39637562      12.02623626  T       0.00000000       0.00000000       0.00000000
Pd       3.04943601       8.10192254      10.77147512  T       0.00000000       0.00000000       0.00000000
Pd       4.58038906       0.00000000       3.02679635  F       0.00000000       0.00000000       0.00000000
Pd       4.57747024       5.40222889       9.14240749  T       0.00000000       0.00000000       0.00000000
Pd       3.05256020       8.10754057       7.65302367  T       0.00000000       0.00000000       0.00000000
Pd       3.05359494       2.70292824       4.56560681  F       0.00000000       0.00000000       0.00000000
Pd       3.05359271       2.70292306       1.50000000  F       0.00000000       0.00000000       0.00000000
Pd       4.58039501       5.40584640       6.11658908  F       0.00000000       0.00000000       0.00000000
Pd       4.58040505      10.81168838       6.11658203  F       0.00000000       0.00000000       0.00000000
Pd       4.58038906       5.40584612       3.02679635  F       0.00000000       0.00000000       0.00000000
Pd       3.05359271       8.10876919       1.50000000  F       0.00000000       0.00000000       0.00000000
Pd       3.05258851       2.70302009       7.65067593  T       0.00000000       0.00000000       0.00000000
Pd       4.57580425      -0.00896120      12.01945993  T       0.00000000       0.00000000       0.00000000
Pd       3.04794027       2.70210369      10.76418643  T       0.00000000       0.00000000       0.00000000
Pd       3.05359569       8.10876742       4.56559865  F       0.00000000       0.00000000       0.00000000
Pd       6.10718542       2.70292306       1.50000000  F       0.00000000       0.00000000       0.00000000
Pd       7.63398177       0.00000000       3.02679635  F       0.00000000       0.00000000       0.00000000
Pd       1.52130665       5.39999852      12.02435196  T       0.00000000       0.00000000       0.00000000
Pd       6.10385578       8.10754140       7.65014077  T       0.00000000       0.00000000       0.00000000
Pd       0.00000079       8.10876600       4.56559869  F       0.00000000       0.00000000       0.00000000
Pd       6.10718651       8.10875952       4.56558968  F       0.00000000       0.00000000       0.00000000
Pd       1.52680247       5.40584247       6.11658534  F       0.00000000       0.00000000       0.00000000
Pd       7.63398177       5.40584612       3.02679635  F       0.00000000       0.00000000       0.00000000
Pd       6.10718542       8.10876919       1.50000000  F       0.00000000       0.00000000       0.00000000
Pd       0.00007420       8.10748680       7.64967887  T       0.00000000       0.00000000       0.00000000
Pd       7.62798552      10.80754668      12.02090008  T       0.00000000       0.00000000       0.00000000
Pd       6.10312410       2.69897034      10.76828177  T       0.00000000       0.00000000       0.00000000
Pd       1.52467546       5.40252843       9.14138261  T       0.00000000       0.00000000       0.00000000
Pd       7.63011702      -0.00423316       9.13972231  T       0.00000000       0.00000000       0.00000000
Pd       6.10498684       2.70166655       7.65138429  T       0.00000000       0.00000000       0.00000000
Pd      12.20994971       8.10380053      10.76175008  T       0.00000000       0.00000000       0.00000000
Pd       7.63399583      10.81167532       6.11657540  F       0.00000000       0.00000000       0.00000000
Pd       6.10718592       2.70292523       4.56558724  F       0.00000000       0.00000000       0.00000000
Pd       1.52679635       5.40584612       3.02679635  F       0.00000000       0.00000000       0.00000000
Pd       0.00000000       2.70292306       1.50000000  F       0.00000000       0.00000000       0.00000000
C        3.78721086       1.45543792      15.03435051  T       0.00000000       0.00000000       0.00000000
O        4.05113360       2.55882287      15.20308561  T       0.00000000       0.00000000       0.00000000
