130
Lattice="12.21437083684855 0.0 7e-16 1.7e-15 10.811692246786171 7e-16 0.0 0.0 30.687574482242482" Properties=species:S:1:pos:R:3:move_mask:L:1:momenta:R:3 adsorbate_info="_JSON {\"site\": {\"coordinates\": [8.397369349560128, 10.167141451487234, 12.046273499727159], \"connectivity\": 2, \"topology\": [9, 118], \"n_vector\": [-0.03716367647415654, 0.04939882912048543, 0.9980874795489869], \"h_vector\": [0.7621934735435955, -0.6434985957255696, 0.0705029516174218], \"site_formula\": {\"O\": 1, \"Pd\": 1}}, \"smiles\": \"Cl[C]=O\", \"mdf\": 2.2904721691427388, \"adsorbate_formula\": \"CO\"}" mace_E=-687.9469100148577 converged=T n_steps=40 d_min=2.462262453618815 site_type=atop dE_rel_meV=0 original_idx=92 rank=9 E_MACE=-687.9459984867733 pbc="T T T"
O        3.04146779       6.71748616      12.17338843  T       0.00000000       0.00000000       0.00000000
O        6.07791340       1.32121681      12.16097219  T       0.00000000       0.00000000       0.00000000
O        6.09435353       4.10661120      12.17378826  T       0.00000000       0.00000000       0.00000000
O        6.09865237       1.35764840       9.17219624  T       0.00000000       0.00000000       0.00000000
O        6.10109733       4.05751924       9.16882942  T       0.00000000       0.00000000       0.00000000
O        6.10718343       1.35539432       6.10801899  F       0.00000000       0.00000000       0.00000000
O        6.10718534       4.05045008       6.10801162  F       0.00000000       0.00000000       0.00000000
O        6.10718542       1.35146153       3.02679635  F       0.00000000       0.00000000       0.00000000
O        6.10718542       4.05438459       3.02679635  F       0.00000000       0.00000000       0.00000000
O        9.14540645       9.49932727      12.18456451  T       0.00000000       0.00000000       0.00000000
O        3.03243013       9.51106308      12.16815153  T       0.00000000       0.00000000       0.00000000
O        3.04549072       6.76325189       9.16945478  T       0.00000000       0.00000000       0.00000000
O        3.04482775       9.46013416       9.16885098  T       0.00000000       0.00000000       0.00000000
O        3.05359341       6.76124998       6.10801980  F       0.00000000       0.00000000       0.00000000
O        3.05359360       9.45629444       6.10802097  F       0.00000000       0.00000000       0.00000000
O        3.05359271       6.75730765       3.02679635  F       0.00000000       0.00000000       0.00000000
O        3.05359271       9.46023072       3.02679635  F       0.00000000       0.00000000       0.00000000
O        3.03241751       1.31063861      12.16822520  T       0.00000000       0.00000000       0.00000000
O        6.10718542       9.46023072       3.02679635  F       0.00000000       0.00000000       0.00000000
O        6.10718542       6.75730765       3.02679635  F       0.00000000       0.00000000       0.00000000
O        6.10718028       9.45628983       6.10801454  F       0.00000000       0.00000000       0.00000000
O        6.10718760       6.76124043       6.10802244  F       0.00000000       0.00000000       0.00000000
O        9.15542445       6.76554779       9.17665622  T       0.00000000       0.00000000       0.00000000
O        9.14980704       9.46039773       9.17664590  T       0.00000000       0.00000000       0.00000000
O        9.16078073       6.76123572       6.10801818  F       0.00000000       0.00000000       0.00000000
O        9.16078059       9.45627785       6.10801483  F       0.00000000       0.00000000       0.00000000
O        9.16077813       6.75730765       3.02679635  F       0.00000000       0.00000000       0.00000000
O        9.16077813       9.46023072       3.02679635  F       0.00000000       0.00000000       0.00000000
O        9.14612920       1.32594852      12.18681003  T       0.00000000       0.00000000       0.00000000
O        9.15191161       4.10729709      12.17536046  T       0.00000000       0.00000000       0.00000000
O        3.04364118       4.10802540      12.17045524  T       0.00000000       0.00000000       0.00000000
O        9.14997014       1.35652587       9.17703643  T       0.00000000       0.00000000       0.00000000
O        9.16077827       1.35539012       6.10801450  F       0.00000000       0.00000000       0.00000000
O        9.16078421       4.05045012       6.10800209  F       0.00000000       0.00000000       0.00000000
O        9.16077813       1.35146153       3.02679635  F       0.00000000       0.00000000       0.00000000
O        9.16077813       4.05438459       3.02679635  F       0.00000000       0.00000000       0.00000000
O        6.09759492       6.71632196      12.18086083  T       0.00000000       0.00000000       0.00000000
O        6.07901785       9.50205954      12.17226563  T       0.00000000       0.00000000       0.00000000
O        6.10302613       6.76521360       9.17509042  T       0.00000000       0.00000000       0.00000000
O        6.09943003       9.46059697       9.17434084  T       0.00000000       0.00000000       0.00000000
O        9.15505642       4.05205980       9.17520204  T       0.00000000       0.00000000       0.00000000
O        3.04473480       1.35911680       9.17137943  T       0.00000000       0.00000000       0.00000000
O        9.15011090       6.71446045      12.17848568  T       0.00000000       0.00000000       0.00000000
O       12.19285762       9.51241817      12.16687051  T       0.00000000       0.00000000       0.00000000
O        0.00000000       6.75730765       3.02679635  F       0.00000000       0.00000000       0.00000000
O        3.04880508       4.05599912       9.16721021  T       0.00000000       0.00000000       0.00000000
O       -0.02039216       1.30987426      12.17307872  T       0.00000000       0.00000000       0.00000000
O        0.00000951       9.45630243       6.10801529  F       0.00000000       0.00000000       0.00000000
O       12.20404948       4.10722228      12.16760436  T       0.00000000       0.00000000       0.00000000
O        0.00000182       6.76124509       6.10800952  F       0.00000000       0.00000000       0.00000000
O       -0.00928176       9.46024609       9.16859527  T       0.00000000       0.00000000       0.00000000
O       -0.00927652       1.35700781       9.17223391  T       0.00000000       0.00000000       0.00000000
O       -0.00683828       6.76233804       9.16932983  T       0.00000000       0.00000000       0.00000000
O       12.20727326       4.05260386       9.16914765  T       0.00000000       0.00000000       0.00000000
O       12.20446700       6.71659514      12.16911641  T       0.00000000       0.00000000       0.00000000
O        0.00000448       1.35539672       6.10801283  F       0.00000000       0.00000000       0.00000000
O        0.00000331       4.05045002       6.10801189  F       0.00000000       0.00000000       0.00000000
O        3.05359271       4.05438459       3.02679635  F       0.00000000       0.00000000       0.00000000
O        0.00000000       9.46023072       3.02679635  F       0.00000000       0.00000000       0.00000000
O        3.05359105       4.05044320       6.10802763  F       0.00000000       0.00000000       0.00000000
O        3.05359271       1.35146153       3.02679635  F       0.00000000       0.00000000       0.00000000
O        3.05359652       1.35540103       6.10801944  F       0.00000000       0.00000000       0.00000000
O        0.00000000       4.05438459       3.02679635  F       0.00000000       0.00000000       0.00000000
O        0.00000000       1.35146153       3.02679635  F       0.00000000       0.00000000       0.00000000
Pd       7.62337400       5.41033258      12.03081272  T       0.00000000       0.00000000       0.00000000
Pd      10.67726099       5.41210141      12.02560153  T       0.00000000       0.00000000       0.00000000
Pd       0.00000000       8.10876919       1.50000000  F       0.00000000       0.00000000       0.00000000
Pd       9.15132176       8.11241405      10.77553806  T       0.00000000       0.00000000       0.00000000
Pd       1.52679635       0.00000000       3.02679635  F       0.00000000       0.00000000       0.00000000
Pd       9.16077813       2.70292306       1.50000000  F       0.00000000       0.00000000       0.00000000
Pd      10.68757448       0.00000000       3.02679635  F       0.00000000       0.00000000       0.00000000
Pd      10.68071637       5.40803531       9.14452543  T       0.00000000       0.00000000       0.00000000
Pd       1.50465228       0.00472095      12.02028808  T       0.00000000       0.00000000       0.00000000
Pd       9.16077900       2.70292450       4.56559698  F       0.00000000       0.00000000       0.00000000
Pd      10.68756280      10.81168006       6.11657659  F       0.00000000       0.00000000       0.00000000
Pd       9.16077776       8.10875607       4.56559406  F       0.00000000       0.00000000       0.00000000
Pd       1.52678677       0.00000067       6.11658292  F       0.00000000       0.00000000       0.00000000
Pd       9.15543932       8.11075232       7.65484003  T       0.00000000       0.00000000       0.00000000
Pd       9.15652740       2.70377896       7.65458906  T       0.00000000       0.00000000       0.00000000
Pd      10.67795867       0.00286656       9.14732002  T       0.00000000       0.00000000       0.00000000
Pd       0.00000135       2.70292705       4.56560641  F       0.00000000       0.00000000       0.00000000
Pd       1.51811570      10.81505567       9.14165270  T       0.00000000       0.00000000       0.00000000
Pd       9.15285004       2.70811976      10.77373909  T       0.00000000       0.00000000       0.00000000
Pd       6.09369093       8.10924318      10.77098792  T       0.00000000       0.00000000       0.00000000
Pd      10.66163090      10.81789557      12.03412984  T       0.00000000       0.00000000       0.00000000
Pd      -0.00496977       2.70347168       7.65228603  T       0.00000000       0.00000000       0.00000000
Pd      10.68757280       5.40584816       6.11657764  F       0.00000000       0.00000000       0.00000000
Pd       9.16077813       8.10876919       1.50000000  F       0.00000000       0.00000000       0.00000000
Pd      10.68757448       5.40584612       3.02679635  F       0.00000000       0.00000000       0.00000000
Pd      12.20316429       2.70602255      10.76938133  T       0.00000000       0.00000000       0.00000000
Pd       4.57072950       0.00359614       9.14429946  T       0.00000000       0.00000000       0.00000000
Pd       7.63397856       5.40585179       6.11657833  F       0.00000000       0.00000000       0.00000000
Pd       7.62974449       5.41011913       9.14854534  T       0.00000000       0.00000000       0.00000000
Pd       4.56984737       5.41366836      12.02946311  T       0.00000000       0.00000000       0.00000000
Pd       3.04017035       8.11205694      10.76756920  T       0.00000000       0.00000000       0.00000000
Pd       4.58038906       0.00000000       3.02679635  F       0.00000000       0.00000000       0.00000000
Pd       4.57478782       5.41171375       9.14267251  T       0.00000000       0.00000000       0.00000000
Pd       3.04881980       8.11004084       7.65145427  T       0.00000000       0.00000000       0.00000000
Pd       3.05359494       2.70292824       4.56560681  F       0.00000000       0.00000000       0.00000000
Pd       3.05359271       2.70292306       1.50000000  F       0.00000000       0.00000000       0.00000000
Pd       4.58039501       5.40584640       6.11658908  F       0.00000000       0.00000000       0.00000000
Pd       4.58040505      10.81168838       6.11658203  F       0.00000000       0.00000000       0.00000000
Pd       4.58038906       5.40584612       3.02679635  F       0.00000000       0.00000000       0.00000000
Pd       3.05359271       8.10876919       1.50000000  F       0.00000000       0.00000000       0.00000000
Pd       3.05115085       2.70474029       7.65161075  T       0.00000000       0.00000000       0.00000000
Pd       4.55682268       0.00499419      12.01911690  T       0.00000000       0.00000000       0.00000000
Pd       3.04147941       2.71011816      10.76786890  T       0.00000000       0.00000000       0.00000000
Pd       3.05359569       8.10876742       4.56559865  F       0.00000000       0.00000000       0.00000000
Pd       6.10718542       2.70292306       1.50000000  F       0.00000000       0.00000000       0.00000000
Pd       7.63398177       0.00000000       3.02679635  F       0.00000000       0.00000000       0.00000000
Pd       1.51659836       5.41194713      12.02325724  T       0.00000000       0.00000000       0.00000000
Pd       6.10573948       8.11041235       7.65378952  T       0.00000000       0.00000000       0.00000000
Pd       0.00000079       8.10876600       4.56559869  F       0.00000000       0.00000000       0.00000000
Pd       6.10718651       8.10875952       4.56558968  F       0.00000000       0.00000000       0.00000000
Pd       1.52680247       5.40584247       6.11658534  F       0.00000000       0.00000000       0.00000000
Pd       7.63398177       5.40584612       3.02679635  F       0.00000000       0.00000000       0.00000000
Pd       6.10718542       8.10876919       1.50000000  F       0.00000000       0.00000000       0.00000000
Pd      -0.00413234       8.10984094       7.65136619  T       0.00000000       0.00000000       0.00000000
Pd       7.61533798      10.81785041      12.05820671  T       0.00000000       0.00000000       0.00000000
Pd       6.08970583       2.71439750      10.76174664  T       0.00000000       0.00000000       0.00000000
Pd       1.51980286       5.40773317       9.13907361  T       0.00000000       0.00000000       0.00000000
Pd       7.62437181       0.00295079       9.15345280  T       0.00000000       0.00000000       0.00000000
Pd       6.10422179       2.70572096       7.65137201  T       0.00000000       0.00000000       0.00000000
Pd      12.20233526       8.11307314      10.76627285  T       0.00000000       0.00000000       0.00000000
Pd       7.63399583      10.81167532       6.11657540  F       0.00000000       0.00000000       0.00000000
Pd       6.10718592       2.70292523       4.56558724  F       0.00000000       0.00000000       0.00000000
Pd       1.52679635       5.40584612       3.02679635  F       0.00000000       0.00000000       0.00000000
Pd       0.00000000       2.70292306       1.50000000  F       0.00000000       0.00000000       0.00000000
C        7.37708832      10.83771525      14.52709075  T       0.00000000       0.00000000       0.00000000
O        6.34745293      10.94489444      15.03354181  T       0.00000000       0.00000000       0.00000000
