130
Lattice="12.21437083684855 0.0 7e-16 1.7e-15 10.811692246786171 7e-16 0.0 0.0 30.687574482242482" Properties=species:S:1:pos:R:3:move_mask:L:1:momenta:R:3 adsorbate_info="_JSON {\"site\": {\"coordinates\": [7.633964176075188, 10.811663051525699, 11.975658465777226], \"connectivity\": 1, \"topology\": [118], \"n_vector\": [-0.003095643912386038, 0.10572519221885343, 0.9943905674930019], \"h_vector\": [1.0, 0.0, 0.0], \"site_formula\": {\"Pd\": 1}}, \"smiles\": \"Cl[C]=O\", \"mdf\": 2.431930407121208, \"adsorbate_formula\": \"CO\"}" mace_E=-687.9337739705475 converged=T n_steps=61 d_min=3.2327052927517306 site_type=bridge dE_rel_meV=0 original_idx=87 rank=8 E_MACE=-687.946054253038 pbc="T T T"
O        3.07250784       6.70508183      12.16247674  T       0.00000000       0.00000000       0.00000000
O        6.13007971       1.30771056      12.16775959  T       0.00000000       0.00000000       0.00000000
O        6.12698001       4.09720125      12.16055414  T       0.00000000       0.00000000       0.00000000
O        6.11748058       1.34828193       9.16562662  T       0.00000000       0.00000000       0.00000000
O        6.11943423       4.04553443       9.16801639  T       0.00000000       0.00000000       0.00000000
O        6.10718343       1.35539432       6.10801899  F       0.00000000       0.00000000       0.00000000
O        6.10718534       4.05045008       6.10801162  F       0.00000000       0.00000000       0.00000000
O        6.10718542       1.35146153       3.02679635  F       0.00000000       0.00000000       0.00000000
O        6.10718542       4.05438459       3.02679635  F       0.00000000       0.00000000       0.00000000
O        9.18008825       9.50468841      12.16217302  T       0.00000000       0.00000000       0.00000000
O        3.06334097       9.48727302      12.15940588  T       0.00000000       0.00000000       0.00000000
O        3.06284516       6.75495788       9.16078111  T       0.00000000       0.00000000       0.00000000
O        3.06634680       9.45534884       9.16629491  T       0.00000000       0.00000000       0.00000000
O        3.05359341       6.76124998       6.10801980  F       0.00000000       0.00000000       0.00000000
O        3.05359360       9.45629444       6.10802097  F       0.00000000       0.00000000       0.00000000
O        3.05359271       6.75730765       3.02679635  F       0.00000000       0.00000000       0.00000000
O        3.05359271       9.46023072       3.02679635  F       0.00000000       0.00000000       0.00000000
O        3.06439844       1.31255019      12.17008065  T       0.00000000       0.00000000       0.00000000
O        6.10718542       9.46023072       3.02679635  F       0.00000000       0.00000000       0.00000000
O        6.10718542       6.75730765       3.02679635  F       0.00000000       0.00000000       0.00000000
O        6.10718028       9.45628983       6.10801454  F       0.00000000       0.00000000       0.00000000
O        6.10718760       6.76124043       6.10802244  F       0.00000000       0.00000000       0.00000000
O        9.17306462       6.75847389       9.16250859  T       0.00000000       0.00000000       0.00000000
O        9.17455994       9.45708399       9.16581388  T       0.00000000       0.00000000       0.00000000
O        9.16078073       6.76123572       6.10801818  F       0.00000000       0.00000000       0.00000000
O        9.16078059       9.45627785       6.10801483  F       0.00000000       0.00000000       0.00000000
O        9.16077813       6.75730765       3.02679635  F       0.00000000       0.00000000       0.00000000
O        9.16077813       9.46023072       3.02679635  F       0.00000000       0.00000000       0.00000000
O        9.17789348       1.30165034      12.16935294  T       0.00000000       0.00000000       0.00000000
O        9.18079396       4.09973452      12.16196018  T       0.00000000       0.00000000       0.00000000
O        3.07140690       4.09743932      12.16863350  T       0.00000000       0.00000000       0.00000000
O        9.17370581       1.35209622       9.16716490  T       0.00000000       0.00000000       0.00000000
O        9.16077827       1.35539012       6.10801450  F       0.00000000       0.00000000       0.00000000
O        9.16078421       4.05045012       6.10800209  F       0.00000000       0.00000000       0.00000000
O        9.16077813       1.35146153       3.02679635  F       0.00000000       0.00000000       0.00000000
O        9.16077813       4.05438459       3.02679635  F       0.00000000       0.00000000       0.00000000
O        6.12622719       6.70468945      12.15146499  T       0.00000000       0.00000000       0.00000000
O        6.13113479       9.49036475      12.14115957  T       0.00000000       0.00000000       0.00000000
O        6.11911654       6.75285425       9.15543639  T       0.00000000       0.00000000       0.00000000
O        6.11830518       9.45799717       9.16026498  T       0.00000000       0.00000000       0.00000000
O        9.17435336       4.04744699       9.16722558  T       0.00000000       0.00000000       0.00000000
O        3.06733767       1.35140001       9.16851950  T       0.00000000       0.00000000       0.00000000
O        9.17967847       6.70556952      12.15716648  T       0.00000000       0.00000000       0.00000000
O       12.23362805       9.50576199      12.16110387  T       0.00000000       0.00000000       0.00000000
O        0.00000000       6.75730765       3.02679635  F       0.00000000       0.00000000       0.00000000
O        3.06229681       4.04729543       9.16871787  T       0.00000000       0.00000000       0.00000000
O        0.02029008       1.30116356      12.16704981  T       0.00000000       0.00000000       0.00000000
O        0.00000951       9.45630243       6.10801529  F       0.00000000       0.00000000       0.00000000
O       12.23266260       4.09805548      12.17276578  T       0.00000000       0.00000000       0.00000000
O        0.00000182       6.76124509       6.10800952  F       0.00000000       0.00000000       0.00000000
O        0.01328348       9.45561683       9.16837463  T       0.00000000       0.00000000       0.00000000
O        0.01398370       1.35283253       9.16929862  T       0.00000000       0.00000000       0.00000000
O        0.01087231       6.75852021       9.16673595  T       0.00000000       0.00000000       0.00000000
O       12.22418061       4.04722943       9.17069243  T       0.00000000       0.00000000       0.00000000
O       12.23375180       6.70663916      12.16704742  T       0.00000000       0.00000000       0.00000000
O        0.00000448       1.35539672       6.10801283  F       0.00000000       0.00000000       0.00000000
O        0.00000331       4.05045002       6.10801189  F       0.00000000       0.00000000       0.00000000
O        3.05359271       4.05438459       3.02679635  F       0.00000000       0.00000000       0.00000000
O        0.00000000       9.46023072       3.02679635  F       0.00000000       0.00000000       0.00000000
O        3.05359105       4.05044320       6.10802763  F       0.00000000       0.00000000       0.00000000
O        3.05359271       1.35146153       3.02679635  F       0.00000000       0.00000000       0.00000000
O        3.05359652       1.35540103       6.10801944  F       0.00000000       0.00000000       0.00000000
O        0.00000000       4.05438459       3.02679635  F       0.00000000       0.00000000       0.00000000
O        0.00000000       1.35146153       3.02679635  F       0.00000000       0.00000000       0.00000000
Pd       7.65319246       5.40156759      12.00941370  T       0.00000000       0.00000000       0.00000000
Pd      10.70781677       5.40268446      12.01373888  T       0.00000000       0.00000000       0.00000000
Pd       0.00000000       8.10876919       1.50000000  F       0.00000000       0.00000000       0.00000000
Pd       9.17863374       8.10679102      10.76028624  T       0.00000000       0.00000000       0.00000000
Pd       1.52679635       0.00000000       3.02679635  F       0.00000000       0.00000000       0.00000000
Pd       9.16077813       2.70292306       1.50000000  F       0.00000000       0.00000000       0.00000000
Pd      10.68757448       0.00000000       3.02679635  F       0.00000000       0.00000000       0.00000000
Pd      10.69920248       5.40325646       9.13684537  T       0.00000000       0.00000000       0.00000000
Pd       1.54787695      -0.00291099      12.01449477  T       0.00000000       0.00000000       0.00000000
Pd       9.16077900       2.70292450       4.56559698  F       0.00000000       0.00000000       0.00000000
Pd      10.68756280      10.81168006       6.11657659  F       0.00000000       0.00000000       0.00000000
Pd       9.16077776       8.10875607       4.56559406  F       0.00000000       0.00000000       0.00000000
Pd       1.52678677       0.00000067       6.11658292  F       0.00000000       0.00000000       0.00000000
Pd       9.16736082       8.10871790       7.64893773  T       0.00000000       0.00000000       0.00000000
Pd       9.16710674       2.70136698       7.65021425  T       0.00000000       0.00000000       0.00000000
Pd      10.70147861      -0.00107941       9.13909203  T       0.00000000       0.00000000       0.00000000
Pd       0.00000135       2.70292705       4.56560641  F       0.00000000       0.00000000       0.00000000
Pd       1.53962054      10.80976672       9.13896998  T       0.00000000       0.00000000       0.00000000
Pd       9.17758957       2.69834332      10.76485033  T       0.00000000       0.00000000       0.00000000
Pd       6.12521582       8.09755038      10.74348940  T       0.00000000       0.00000000       0.00000000
Pd      10.70703273      10.81002180      12.01733504  T       0.00000000       0.00000000       0.00000000
Pd       0.00654368       2.70130277       7.65172625  T       0.00000000       0.00000000       0.00000000
Pd      10.68757280       5.40584816       6.11657764  F       0.00000000       0.00000000       0.00000000
Pd       9.16077813       8.10876919       1.50000000  F       0.00000000       0.00000000       0.00000000
Pd      10.68757448       5.40584612       3.02679635  F       0.00000000       0.00000000       0.00000000
Pd      12.23075126       2.70115645      10.76849165  T       0.00000000       0.00000000       0.00000000
Pd       4.59181513      -0.00235387       9.14151146  T       0.00000000       0.00000000       0.00000000
Pd       7.63397856       5.40585179       6.11657833  F       0.00000000       0.00000000       0.00000000
Pd       7.64710466       5.40093771       9.13288827  T       0.00000000       0.00000000       0.00000000
Pd       4.59891760       5.40061023      12.01546482  T       0.00000000       0.00000000       0.00000000
Pd       3.06451765       8.09887238      10.75586869  T       0.00000000       0.00000000       0.00000000
Pd       4.58038906       0.00000000       3.02679635  F       0.00000000       0.00000000       0.00000000
Pd       4.59081567       5.40000861       9.13482130  T       0.00000000       0.00000000       0.00000000
Pd       3.05980070       8.10770901       7.64789930  T       0.00000000       0.00000000       0.00000000
Pd       3.05359494       2.70292824       4.56560681  F       0.00000000       0.00000000       0.00000000
Pd       3.05359271       2.70292306       1.50000000  F       0.00000000       0.00000000       0.00000000
Pd       4.58039501       5.40584640       6.11658908  F       0.00000000       0.00000000       0.00000000
Pd       4.58040505      10.81168838       6.11658203  F       0.00000000       0.00000000       0.00000000
Pd       4.58038906       5.40584612       3.02679635  F       0.00000000       0.00000000       0.00000000
Pd       3.05359271       8.10876919       1.50000000  F       0.00000000       0.00000000       0.00000000
Pd       3.06037392       2.70124630       7.65054162  T       0.00000000       0.00000000       0.00000000
Pd       4.59461073      -0.00555831      12.03894115  T       0.00000000       0.00000000       0.00000000
Pd       3.06521383       2.70003400      10.76505367  T       0.00000000       0.00000000       0.00000000
Pd       3.05359569       8.10876742       4.56559865  F       0.00000000       0.00000000       0.00000000
Pd       6.10718542       2.70292306       1.50000000  F       0.00000000       0.00000000       0.00000000
Pd       7.63398177       0.00000000       3.02679635  F       0.00000000       0.00000000       0.00000000
Pd       1.54565917       5.40137674      12.02116257  T       0.00000000       0.00000000       0.00000000
Pd       6.11200357       8.10713729       7.64478440  T       0.00000000       0.00000000       0.00000000
Pd       0.00000079       8.10876600       4.56559869  F       0.00000000       0.00000000       0.00000000
Pd       6.10718651       8.10875952       4.56558968  F       0.00000000       0.00000000       0.00000000
Pd       1.52680247       5.40584247       6.11658534  F       0.00000000       0.00000000       0.00000000
Pd       7.63398177       5.40584612       3.02679635  F       0.00000000       0.00000000       0.00000000
Pd       6.10718542       8.10876919       1.50000000  F       0.00000000       0.00000000       0.00000000
Pd       0.00644023       8.10846199       7.65072633  T       0.00000000       0.00000000       0.00000000
Pd       7.65318812      10.80774102      12.01351269  T       0.00000000       0.00000000       0.00000000
Pd       6.12420522       2.69769873      10.76022953  T       0.00000000       0.00000000       0.00000000
Pd       1.53565512       5.40171191       9.13712120  T       0.00000000       0.00000000       0.00000000
Pd       7.64809064      -0.00159928       9.13507324  T       0.00000000       0.00000000       0.00000000
Pd       6.11167066       2.70152091       7.64939031  T       0.00000000       0.00000000       0.00000000
Pd      12.23055909       8.10489210      10.76448195  T       0.00000000       0.00000000       0.00000000
Pd       7.63399583      10.81167532       6.11657540  F       0.00000000       0.00000000       0.00000000
Pd       6.10718592       2.70292523       4.56558724  F       0.00000000       0.00000000       0.00000000
Pd       1.52679635       5.40584612       3.02679635  F       0.00000000       0.00000000       0.00000000
Pd       0.00000000       2.70292306       1.50000000  F       0.00000000       0.00000000       0.00000000
C        4.69073485      10.61176795      14.49460968  T       0.00000000       0.00000000       0.00000000
O        5.58110997      10.12639512      15.04180981  T       0.00000000       0.00000000       0.00000000
