130
Lattice="12.21437083684855 0.0 7e-16 1.7e-15 10.811692246786171 7e-16 0.0 0.0 30.687574482242482" Properties=species:S:1:pos:R:3:move_mask:L:1:momenta:R:3 adsorbate_info="_JSON {\"site\": {\"coordinates\": [12.214329645168377, 6.694951645807662, 12.11691848403874], \"connectivity\": 1, \"topology\": [54], \"n_vector\": [0.11406645651290463, -0.024672040112476156, 0.9931667201106157], \"h_vector\": [1.0, 0.0, 0.0], \"site_formula\": {\"O\": 1}}, \"smiles\": \"Cl[C]=O\", \"mdf\": 2.8497914048358073, \"adsorbate_formula\": \"CO\"}" mace_E=-687.8295684589016 converged=T n_steps=25 d_min=2.46306811135213 site_type=hollow dE_rel_meV=0 original_idx=131 rank=6 E_MACE=-687.9462734940198 pbc="T T T"
O        3.05273604       6.70591565      12.17384282  T       0.00000000       0.00000000       0.00000000
O        6.10518164       1.30046935      12.17925619  T       0.00000000       0.00000000       0.00000000
O        6.10511678       4.09331375      12.18721216  T       0.00000000       0.00000000       0.00000000
O        6.10471354       1.35816798       9.17640259  T       0.00000000       0.00000000       0.00000000
O        6.10606119       4.04832687       9.17809373  T       0.00000000       0.00000000       0.00000000
O        6.10718343       1.35539432       6.10801899  F       0.00000000       0.00000000       0.00000000
O        6.10718534       4.05045008       6.10801162  F       0.00000000       0.00000000       0.00000000
O        6.10718542       1.35146153       3.02679635  F       0.00000000       0.00000000       0.00000000
O        6.10718542       4.05438459       3.02679635  F       0.00000000       0.00000000       0.00000000
O        9.16025811       9.50539922      12.16804664  T       0.00000000       0.00000000       0.00000000
O        3.05149154       9.50228438      12.17741052  T       0.00000000       0.00000000       0.00000000
O        3.05396323       6.76220364       9.17378788  T       0.00000000       0.00000000       0.00000000
O        3.05342786       9.45505224       9.17509761  T       0.00000000       0.00000000       0.00000000
O        3.05359341       6.76124998       6.10801980  F       0.00000000       0.00000000       0.00000000
O        3.05359360       9.45629444       6.10802097  F       0.00000000       0.00000000       0.00000000
O        3.05359271       6.75730765       3.02679635  F       0.00000000       0.00000000       0.00000000
O        3.05359271       9.46023072       3.02679635  F       0.00000000       0.00000000       0.00000000
O        3.05461121       1.30079534      12.17864781  T       0.00000000       0.00000000       0.00000000
O        6.10718542       9.46023072       3.02679635  F       0.00000000       0.00000000       0.00000000
O        6.10718542       6.75730765       3.02679635  F       0.00000000       0.00000000       0.00000000
O        6.10718028       9.45628983       6.10801454  F       0.00000000       0.00000000       0.00000000
O        6.10718760       6.76124043       6.10802244  F       0.00000000       0.00000000       0.00000000
O        9.15935724       6.76213741       9.16475501  T       0.00000000       0.00000000       0.00000000
O        9.16015094       9.46043840       9.16683011  T       0.00000000       0.00000000       0.00000000
O        9.16078073       6.76123572       6.10801818  F       0.00000000       0.00000000       0.00000000
O        9.16078059       9.45627785       6.10801483  F       0.00000000       0.00000000       0.00000000
O        9.16077813       6.75730765       3.02679635  F       0.00000000       0.00000000       0.00000000
O        9.16077813       9.46023072       3.02679635  F       0.00000000       0.00000000       0.00000000
O        9.15880031       1.30412376      12.17578141  T       0.00000000       0.00000000       0.00000000
O        9.16147461       4.09498621      12.17497951  T       0.00000000       0.00000000       0.00000000
O        3.05121098       4.09376047      12.18699731  T       0.00000000       0.00000000       0.00000000
O        9.15922473       1.35841576       9.17280257  T       0.00000000       0.00000000       0.00000000
O        9.16077827       1.35539012       6.10801450  F       0.00000000       0.00000000       0.00000000
O        9.16078421       4.05045012       6.10800209  F       0.00000000       0.00000000       0.00000000
O        9.16077813       1.35146153       3.02679635  F       0.00000000       0.00000000       0.00000000
O        9.16077813       4.05438459       3.02679635  F       0.00000000       0.00000000       0.00000000
O        6.10453574       6.70520992      12.17254046  T       0.00000000       0.00000000       0.00000000
O        6.10814316       9.50189430      12.17678012  T       0.00000000       0.00000000       0.00000000
O        6.10589070       6.76178584       9.17302055  T       0.00000000       0.00000000       0.00000000
O        6.10720923       9.45523792       9.17459239  T       0.00000000       0.00000000       0.00000000
O        9.16019976       4.05024267       9.17275973  T       0.00000000       0.00000000       0.00000000
O        3.05564503       1.35823171       9.17636747  T       0.00000000       0.00000000       0.00000000
O        9.15741919       6.70774907      12.14768127  T       0.00000000       0.00000000       0.00000000
O       12.21371637       9.50567642      12.17199493  T       0.00000000       0.00000000       0.00000000
O        0.00000000       6.75730765       3.02679635  F       0.00000000       0.00000000       0.00000000
O        3.05305440       4.04868063       9.17796567  T       0.00000000       0.00000000       0.00000000
O        0.00054956       1.30448662      12.17892565  T       0.00000000       0.00000000       0.00000000
O        0.00000951       9.45630243       6.10801529  F       0.00000000       0.00000000       0.00000000
O       12.21028631       4.09547497      12.17827315  T       0.00000000       0.00000000       0.00000000
O        0.00000182       6.76124509       6.10800952  F       0.00000000       0.00000000       0.00000000
O        0.00104384       9.45993057       9.16889696  T       0.00000000       0.00000000       0.00000000
O        0.00211613       1.35897850       9.17455980  T       0.00000000       0.00000000       0.00000000
O        0.00061217       6.76322820       9.16711778  T       0.00000000       0.00000000       0.00000000
O       12.21483658       4.05006629       9.17457290  T       0.00000000       0.00000000       0.00000000
O       12.21331551       6.70859251      12.15309670  T       0.00000000       0.00000000       0.00000000
O        0.00000448       1.35539672       6.10801283  F       0.00000000       0.00000000       0.00000000
O        0.00000331       4.05045002       6.10801189  F       0.00000000       0.00000000       0.00000000
O        3.05359271       4.05438459       3.02679635  F       0.00000000       0.00000000       0.00000000
O        0.00000000       9.46023072       3.02679635  F       0.00000000       0.00000000       0.00000000
O        3.05359105       4.05044320       6.10802763  F       0.00000000       0.00000000       0.00000000
O        3.05359271       1.35146153       3.02679635  F       0.00000000       0.00000000       0.00000000
O        3.05359652       1.35540103       6.10801944  F       0.00000000       0.00000000       0.00000000
O        0.00000000       4.05438459       3.02679635  F       0.00000000       0.00000000       0.00000000
O        0.00000000       1.35146153       3.02679635  F       0.00000000       0.00000000       0.00000000
Pd       7.63119641       5.39873353      12.02856112  T       0.00000000       0.00000000       0.00000000
Pd      10.68591523       5.40144006      11.99999528  T       0.00000000       0.00000000       0.00000000
Pd       0.00000000       8.10876919       1.50000000  F       0.00000000       0.00000000       0.00000000
Pd       9.15778976       8.11307817      10.76004623  T       0.00000000       0.00000000       0.00000000
Pd       1.52679635       0.00000000       3.02679635  F       0.00000000       0.00000000       0.00000000
Pd       9.16077813       2.70292306       1.50000000  F       0.00000000       0.00000000       0.00000000
Pd      10.68757448       0.00000000       3.02679635  F       0.00000000       0.00000000       0.00000000
Pd      10.68756376       5.40606788       9.13831254  T       0.00000000       0.00000000       0.00000000
Pd       1.52624746      -0.00206917      12.03048472  T       0.00000000       0.00000000       0.00000000
Pd       9.16077900       2.70292450       4.56559698  F       0.00000000       0.00000000       0.00000000
Pd      10.68756280      10.81168006       6.11657659  F       0.00000000       0.00000000       0.00000000
Pd       9.16077776       8.10875607       4.56559406  F       0.00000000       0.00000000       0.00000000
Pd       1.52678677       0.00000067       6.11658292  F       0.00000000       0.00000000       0.00000000
Pd       9.15989817       8.11064647       7.64888446  T       0.00000000       0.00000000       0.00000000
Pd       9.16034767       2.70369892       7.65221962  T       0.00000000       0.00000000       0.00000000
Pd      10.68802370       0.00442181       9.14345333  T       0.00000000       0.00000000       0.00000000
Pd       0.00000135       2.70292705       4.56560641  F       0.00000000       0.00000000       0.00000000
Pd       1.52872504      10.81430095       9.14571392  T       0.00000000       0.00000000       0.00000000
Pd       9.15876038       2.70041836      10.77123128  T       0.00000000       0.00000000       0.00000000
Pd       6.10637782       8.10605930      10.77261149  T       0.00000000       0.00000000       0.00000000
Pd      10.68715029      10.81100306      12.02710654  T       0.00000000       0.00000000       0.00000000
Pd       0.00093905       2.70381289       7.65317144  T       0.00000000       0.00000000       0.00000000
Pd      10.68757280       5.40584816       6.11657764  F       0.00000000       0.00000000       0.00000000
Pd       9.16077813       8.10876919       1.50000000  F       0.00000000       0.00000000       0.00000000
Pd      10.68757448       5.40584612       3.02679635  F       0.00000000       0.00000000       0.00000000
Pd      12.21546903       2.70076052      10.77405462  T       0.00000000       0.00000000       0.00000000
Pd       4.58025702      -0.00007279       9.14738396  T       0.00000000       0.00000000       0.00000000
Pd       7.63397856       5.40585179       6.11657833  F       0.00000000       0.00000000       0.00000000
Pd       7.63259910       5.40542461       9.14299707  T       0.00000000       0.00000000       0.00000000
Pd       4.57824275       5.39798586      12.03395332  T       0.00000000       0.00000000       0.00000000
Pd       3.05296616       8.10634359      10.77349765  T       0.00000000       0.00000000       0.00000000
Pd       4.58038906       0.00000000       3.02679635  F       0.00000000       0.00000000       0.00000000
Pd       4.57975128       5.40477822       9.14803658  T       0.00000000       0.00000000       0.00000000
Pd       3.05391972       8.10910984       7.65336921  T       0.00000000       0.00000000       0.00000000
Pd       3.05359494       2.70292824       4.56560681  F       0.00000000       0.00000000       0.00000000
Pd       3.05359271       2.70292306       1.50000000  F       0.00000000       0.00000000       0.00000000
Pd       4.58039501       5.40584640       6.11658908  F       0.00000000       0.00000000       0.00000000
Pd       4.58040505      10.81168838       6.11658203  F       0.00000000       0.00000000       0.00000000
Pd       4.58038906       5.40584612       3.02679635  F       0.00000000       0.00000000       0.00000000
Pd       3.05359271       8.10876919       1.50000000  F       0.00000000       0.00000000       0.00000000
Pd       3.05446841       2.70353727       7.65468008  T       0.00000000       0.00000000       0.00000000
Pd       4.57985536      -0.00544300      12.03137392  T       0.00000000       0.00000000       0.00000000
Pd       3.05389705       2.70121071      10.77836668  T       0.00000000       0.00000000       0.00000000
Pd       3.05359569       8.10876742       4.56559865  F       0.00000000       0.00000000       0.00000000
Pd       6.10718542       2.70292306       1.50000000  F       0.00000000       0.00000000       0.00000000
Pd       7.63398177       0.00000000       3.02679635  F       0.00000000       0.00000000       0.00000000
Pd       1.52545376       5.39976780      12.03071250  T       0.00000000       0.00000000       0.00000000
Pd       6.10644638       8.10911109       7.65308076  T       0.00000000       0.00000000       0.00000000
Pd       0.00000079       8.10876600       4.56559869  F       0.00000000       0.00000000       0.00000000
Pd       6.10718651       8.10875952       4.56558968  F       0.00000000       0.00000000       0.00000000
Pd       1.52680247       5.40584247       6.11658534  F       0.00000000       0.00000000       0.00000000
Pd       7.63398177       5.40584612       3.02679635  F       0.00000000       0.00000000       0.00000000
Pd       6.10718542       8.10876919       1.50000000  F       0.00000000       0.00000000       0.00000000
Pd       0.00099491       8.11070579       7.64995587  T       0.00000000       0.00000000       0.00000000
Pd       7.63319466      10.80925107      12.02834902  T       0.00000000       0.00000000       0.00000000
Pd       6.10463876       2.70076308      10.77874449  T       0.00000000       0.00000000       0.00000000
Pd       1.52709938       5.40616835       9.14474951  T       0.00000000       0.00000000       0.00000000
Pd       7.63207459       0.00274692       9.14450364  T       0.00000000       0.00000000       0.00000000
Pd       6.10547948       2.70347441       7.65475059  T       0.00000000       0.00000000       0.00000000
Pd      12.21567601       8.11338208      10.76384257  T       0.00000000       0.00000000       0.00000000
Pd       7.63399583      10.81167532       6.11657540  F       0.00000000       0.00000000       0.00000000
Pd       6.10718592       2.70292523       4.56558724  F       0.00000000       0.00000000       0.00000000
Pd       1.52679635       5.40584612       3.02679635  F       0.00000000       0.00000000       0.00000000
Pd       0.00000000       2.70292306       1.50000000  F       0.00000000       0.00000000       0.00000000
C       10.63638749       6.77776088      14.93005772  T       0.00000000       0.00000000       0.00000000
O       10.58625689       5.73528131      15.41165983  T       0.00000000       0.00000000       0.00000000
