130
Lattice="12.21437083684855 0.0 7e-16 1.7e-15 10.811692246786171 7e-16 0.0 0.0 30.687574482242482" Properties=species:S:1:pos:R:3:move_mask:L:1:momenta:R:3 adsorbate_info="_JSON {\"site\": {\"coordinates\": [2.290211741822173, 4.761325494547888, 12.046277740688161], \"connectivity\": 2, \"topology\": [30, 110], \"n_vector\": [-0.037756529822753335, -0.08183495096675576, 0.9959304620584774], \"h_vector\": [0.7621517833745132, -0.643549313175441, 0.0704907129377145], \"site_formula\": {\"O\": 1, \"Pd\": 1}}, \"smiles\": \"Cl[C]=O\", \"mdf\": 2.521672882944794, \"adsorbate_formula\": \"CO\"}" mace_E=-687.9449909037323 converged=T n_steps=31 d_min=3.016017363599743 site_type=atop dE_rel_meV=0 original_idx=22 rank=69 E_MACE=-687.8544398760166 pbc="T T T"
O        3.05025490       6.73658475      12.18629906  T       0.00000000       0.00000000       0.00000000
O        6.10392353       1.30658952      12.18251983  T       0.00000000       0.00000000       0.00000000
O        6.08942041       4.10526365      12.17873667  T       0.00000000       0.00000000       0.00000000
O        6.10640242       1.35807718       9.17764902  T       0.00000000       0.00000000       0.00000000
O        6.09803274       4.05115636       9.17700219  T       0.00000000       0.00000000       0.00000000
O        6.10718343       1.35539432       6.10801899  F       0.00000000       0.00000000       0.00000000
O        6.10718534       4.05045008       6.10801162  F       0.00000000       0.00000000       0.00000000
O        6.10718542       1.35146153       3.02679635  F       0.00000000       0.00000000       0.00000000
O        6.10718542       4.05438459       3.02679635  F       0.00000000       0.00000000       0.00000000
O        9.15729550       9.51006623      12.16496673  T       0.00000000       0.00000000       0.00000000
O        3.04500653       9.51871391      12.17236244  T       0.00000000       0.00000000       0.00000000
O        3.04662892       6.76290940       9.17791042  T       0.00000000       0.00000000       0.00000000
O        3.05212246       9.46085519       9.17117989  T       0.00000000       0.00000000       0.00000000
O        3.05359341       6.76124998       6.10801980  F       0.00000000       0.00000000       0.00000000
O        3.05359360       9.45629444       6.10802097  F       0.00000000       0.00000000       0.00000000
O        3.05359271       6.75730765       3.02679635  F       0.00000000       0.00000000       0.00000000
O        3.05359271       9.46023072       3.02679635  F       0.00000000       0.00000000       0.00000000
O        3.05171210       1.31348153      12.18473475  T       0.00000000       0.00000000       0.00000000
O        6.10718542       9.46023072       3.02679635  F       0.00000000       0.00000000       0.00000000
O        6.10718542       6.75730765       3.02679635  F       0.00000000       0.00000000       0.00000000
O        6.10718028       9.45628983       6.10801454  F       0.00000000       0.00000000       0.00000000
O        6.10718760       6.76124043       6.10802244  F       0.00000000       0.00000000       0.00000000
O        9.15409277       6.75852741       9.17077105  T       0.00000000       0.00000000       0.00000000
O        9.15994396       9.45773751       9.16858665  T       0.00000000       0.00000000       0.00000000
O        9.16078073       6.76123572       6.10801818  F       0.00000000       0.00000000       0.00000000
O        9.16078059       9.45627785       6.10801483  F       0.00000000       0.00000000       0.00000000
O        9.16077813       6.75730765       3.02679635  F       0.00000000       0.00000000       0.00000000
O        9.16077813       9.46023072       3.02679635  F       0.00000000       0.00000000       0.00000000
O        9.15463299       1.30639096      12.17496876  T       0.00000000       0.00000000       0.00000000
O        9.14969021       4.10575500      12.17371579  T       0.00000000       0.00000000       0.00000000
O        3.04205066       4.09374043      12.19732151  T       0.00000000       0.00000000       0.00000000
O        9.16136843       1.35561512       9.17415005  T       0.00000000       0.00000000       0.00000000
O        9.16077827       1.35539012       6.10801450  F       0.00000000       0.00000000       0.00000000
O        9.16078421       4.05045012       6.10800209  F       0.00000000       0.00000000       0.00000000
O        9.16077813       1.35146153       3.02679635  F       0.00000000       0.00000000       0.00000000
O        9.16077813       4.05438459       3.02679635  F       0.00000000       0.00000000       0.00000000
O        6.09135111       6.71109388      12.16850253  T       0.00000000       0.00000000       0.00000000
O        6.10045657       9.50976170      12.16971013  T       0.00000000       0.00000000       0.00000000
O        6.10003636       6.76107985       9.17188515  T       0.00000000       0.00000000       0.00000000
O        6.10513279       9.45995072       9.17057072  T       0.00000000       0.00000000       0.00000000
O        9.15642742       4.05180752       9.17364985  T       0.00000000       0.00000000       0.00000000
O        3.05286872       1.36156607       9.17975468  T       0.00000000       0.00000000       0.00000000
O        9.14506735       6.71330945      12.17005391  T       0.00000000       0.00000000       0.00000000
O       12.21239082       9.51894499      12.16903391  T       0.00000000       0.00000000       0.00000000
O        0.00000000       6.75730765       3.02679635  F       0.00000000       0.00000000       0.00000000
O        3.04594771       4.05403924       9.17936065  T       0.00000000       0.00000000       0.00000000
O       -0.00871738       1.31380364      12.17409721  T       0.00000000       0.00000000       0.00000000
O        0.00000951       9.45630243       6.10801529  F       0.00000000       0.00000000       0.00000000
O       12.19629751       4.09978367      12.18692671  T       0.00000000       0.00000000       0.00000000
O        0.00000182       6.76124509       6.10800952  F       0.00000000       0.00000000       0.00000000
O        0.00157525       9.45910728       9.17087725  T       0.00000000       0.00000000       0.00000000
O       -0.00160235       1.36045318       9.17741698  T       0.00000000       0.00000000       0.00000000
O       -0.00261495       6.76122419       9.17754228  T       0.00000000       0.00000000       0.00000000
O       12.21229841       4.05647552       9.17575890  T       0.00000000       0.00000000       0.00000000
O       12.19089386       6.73519540      12.18223040  T       0.00000000       0.00000000       0.00000000
O        0.00000448       1.35539672       6.10801283  F       0.00000000       0.00000000       0.00000000
O        0.00000331       4.05045002       6.10801189  F       0.00000000       0.00000000       0.00000000
O        3.05359271       4.05438459       3.02679635  F       0.00000000       0.00000000       0.00000000
O        0.00000000       9.46023072       3.02679635  F       0.00000000       0.00000000       0.00000000
O        3.05359105       4.05044320       6.10802763  F       0.00000000       0.00000000       0.00000000
O        3.05359271       1.35146153       3.02679635  F       0.00000000       0.00000000       0.00000000
O        3.05359652       1.35540103       6.10801944  F       0.00000000       0.00000000       0.00000000
O        0.00000000       4.05438459       3.02679635  F       0.00000000       0.00000000       0.00000000
O        0.00000000       1.35146153       3.02679635  F       0.00000000       0.00000000       0.00000000
Pd       7.61792497       5.40731188      12.02371683  T       0.00000000       0.00000000       0.00000000
Pd      10.67470830       5.41301321      12.02965087  T       0.00000000       0.00000000       0.00000000
Pd       0.00000000       8.10876919       1.50000000  F       0.00000000       0.00000000       0.00000000
Pd       9.15329740       8.10925052      10.76514601  T       0.00000000       0.00000000       0.00000000
Pd       1.52679635       0.00000000       3.02679635  F       0.00000000       0.00000000       0.00000000
Pd       9.16077813       2.70292306       1.50000000  F       0.00000000       0.00000000       0.00000000
Pd      10.68757448       0.00000000       3.02679635  F       0.00000000       0.00000000       0.00000000
Pd      10.68222549       5.40726155       9.14634437  T       0.00000000       0.00000000       0.00000000
Pd       1.52207697       0.01377201      12.02618025  T       0.00000000       0.00000000       0.00000000
Pd       9.16077900       2.70292450       4.56559698  F       0.00000000       0.00000000       0.00000000
Pd      10.68756280      10.81168006       6.11657659  F       0.00000000       0.00000000       0.00000000
Pd       9.16077776       8.10875607       4.56559406  F       0.00000000       0.00000000       0.00000000
Pd       1.52678677       0.00000067       6.11658292  F       0.00000000       0.00000000       0.00000000
Pd       9.15961601       8.10792439       7.65164670  T       0.00000000       0.00000000       0.00000000
Pd       9.16038791       2.70321170       7.65385496  T       0.00000000       0.00000000       0.00000000
Pd      10.68807359       0.00143715       9.14288085  T       0.00000000       0.00000000       0.00000000
Pd       0.00000135       2.70292705       4.56560641  F       0.00000000       0.00000000       0.00000000
Pd       1.52658169      10.81716812       9.14503114  T       0.00000000       0.00000000       0.00000000
Pd       9.15686976       2.70531366      10.77223801  T       0.00000000       0.00000000       0.00000000
Pd       6.09783366       8.11080896      10.76732946  T       0.00000000       0.00000000       0.00000000
Pd      10.68259956      10.81747400      12.02179018  T       0.00000000       0.00000000       0.00000000
Pd      -0.00022309       2.70518329       7.65432216  T       0.00000000       0.00000000       0.00000000
Pd      10.68757280       5.40584816       6.11657764  F       0.00000000       0.00000000       0.00000000
Pd       9.16077813       8.10876919       1.50000000  F       0.00000000       0.00000000       0.00000000
Pd      10.68757448       5.40584612       3.02679635  F       0.00000000       0.00000000       0.00000000
Pd      12.20554716       2.71185910      10.77245392  T       0.00000000       0.00000000       0.00000000
Pd       4.57932425       0.00463805       9.14443664  T       0.00000000       0.00000000       0.00000000
Pd       7.63397856       5.40585179       6.11657833  F       0.00000000       0.00000000       0.00000000
Pd       7.62665570       5.40461127       9.14414068  T       0.00000000       0.00000000       0.00000000
Pd       4.55955525       5.41009092      12.03503602  T       0.00000000       0.00000000       0.00000000
Pd       3.04861507       8.11728274      10.77144759  T       0.00000000       0.00000000       0.00000000
Pd       4.58038906       0.00000000       3.02679635  F       0.00000000       0.00000000       0.00000000
Pd       4.57331375       5.40745648       9.14773191  T       0.00000000       0.00000000       0.00000000
Pd       3.05049017       8.10901495       7.65362876  T       0.00000000       0.00000000       0.00000000
Pd       3.05359494       2.70292824       4.56560681  F       0.00000000       0.00000000       0.00000000
Pd       3.05359271       2.70292306       1.50000000  F       0.00000000       0.00000000       0.00000000
Pd       4.58039501       5.40584640       6.11658908  F       0.00000000       0.00000000       0.00000000
Pd       4.58040505      10.81168838       6.11658203  F       0.00000000       0.00000000       0.00000000
Pd       4.58038906       5.40584612       3.02679635  F       0.00000000       0.00000000       0.00000000
Pd       3.05359271       8.10876919       1.50000000  F       0.00000000       0.00000000       0.00000000
Pd       3.05048305       2.70516044       7.65587641  T       0.00000000       0.00000000       0.00000000
Pd       4.57521326       0.00602740      12.03062888  T       0.00000000       0.00000000       0.00000000
Pd       3.04913089       2.71000588      10.78062704  T       0.00000000       0.00000000       0.00000000
Pd       3.05359569       8.10876742       4.56559865  F       0.00000000       0.00000000       0.00000000
Pd       6.10718542       2.70292306       1.50000000  F       0.00000000       0.00000000       0.00000000
Pd       7.63398177       0.00000000       3.02679635  F       0.00000000       0.00000000       0.00000000
Pd       1.51473480       5.41971478      12.07416916  T       0.00000000       0.00000000       0.00000000
Pd       6.10448725       8.10961909       7.65247589  T       0.00000000       0.00000000       0.00000000
Pd       0.00000079       8.10876600       4.56559869  F       0.00000000       0.00000000       0.00000000
Pd       6.10718651       8.10875952       4.56558968  F       0.00000000       0.00000000       0.00000000
Pd       1.52680247       5.40584247       6.11658534  F       0.00000000       0.00000000       0.00000000
Pd       7.63398177       5.40584612       3.02679635  F       0.00000000       0.00000000       0.00000000
Pd       6.10718542       8.10876919       1.50000000  F       0.00000000       0.00000000       0.00000000
Pd       0.00112321       8.10782897       7.65340283  T       0.00000000       0.00000000       0.00000000
Pd       7.62881963      10.81314690      12.02398553  T       0.00000000       0.00000000       0.00000000
Pd       6.09766635       2.70491310      10.77809883  T       0.00000000       0.00000000       0.00000000
Pd       1.52231425       5.40853631       9.15578088  T       0.00000000       0.00000000       0.00000000
Pd       7.63349409       0.00217880       9.14323316  T       0.00000000       0.00000000       0.00000000
Pd       6.10424625       2.70375784       7.65556672  T       0.00000000       0.00000000       0.00000000
Pd      12.20850321       8.11705470      10.76881630  T       0.00000000       0.00000000       0.00000000
Pd       7.63399583      10.81167532       6.11657540  F       0.00000000       0.00000000       0.00000000
Pd       6.10718592       2.70292523       4.56558724  F       0.00000000       0.00000000       0.00000000
Pd       1.52679635       5.40584612       3.02679635  F       0.00000000       0.00000000       0.00000000
Pd       0.00000000       2.70292306       1.50000000  F       0.00000000       0.00000000       0.00000000
C        1.30690865       5.52555887      14.52496952  T       0.00000000       0.00000000       0.00000000
O        0.28219584       5.48587961      15.05145302  T       0.00000000       0.00000000       0.00000000
