109
Lattice="12.21437083684855 0.0 7e-16 1.7e-15 10.811692246786171 7e-16 0.0 0.0 29.250333490173453" Properties=species:S:1:pos:R:3:move_mask:L:1:momenta:R:3 adsorbate_info="_JSON {\"site\": {\"coordinates\": [6.616120098096899, 5.405857030346321, 10.222521635212937], \"connectivity\": 3, \"topology\": [66, 93, 101], \"n_vector\": [0.10711499347333944, -0.010412896078509988, 0.9941921090857967], \"h_vector\": [0.43340093173966315, 0.7672630812125283, -0.47272719043381567], \"site_formula\": {\"Pd\": 3}}, \"smiles\": \"ClOC\", \"mdf\": 2.6456550839221924, \"adsorbate_formula\": \"CH3O\"}" mace_E=-557.8530834855935 converged=T n_steps=53 d_min=3.3798268845010386 site_type=unknown dE_rel_meV=0 original_idx=140 rank=7 E_MACE=-558.117725082682 pbc="T T T"
O        6.10913696       1.35743524       9.20385696  T       0.00000000       0.00000000       0.00000000
O        9.16077813       4.05438459       3.02679635  F       0.00000000       0.00000000       0.00000000
O        6.12171200       6.72554190       9.15451428  T       0.00000000       0.00000000       0.00000000
O        6.13071323       9.45609849       9.21660425  T       0.00000000       0.00000000       0.00000000
O        9.18746813       4.05998816       9.18505069  T       0.00000000       0.00000000       0.00000000
O        3.06800385       1.33493470       9.19677226  T       0.00000000       0.00000000       0.00000000
O        0.00000000       6.75730765       3.02679635  F       0.00000000       0.00000000       0.00000000
O        3.05848526       4.04935667       9.19960748  T       0.00000000       0.00000000       0.00000000
O        0.00000378       9.45637311       6.10263459  F       0.00000000       0.00000000       0.00000000
O        0.00000210       6.76116167       6.10263319  F       0.00000000       0.00000000       0.00000000
O       12.23064380       9.46327695       9.19107398  T       0.00000000       0.00000000       0.00000000
O       12.23008433       1.33554432       9.19109878  T       0.00000000       0.00000000       0.00000000
O       12.22408743       4.05774973       9.19062645  T       0.00000000       0.00000000       0.00000000
O        0.00000083       1.35531789       6.10263389  F       0.00000000       0.00000000       0.00000000
O        0.00000111       4.05052849       6.10263306  F       0.00000000       0.00000000       0.00000000
O        3.05359271       4.05438459       3.02679635  F       0.00000000       0.00000000       0.00000000
O        0.00000000       9.46023072       3.02679635  F       0.00000000       0.00000000       0.00000000
O        3.05359462       4.05052721       6.10264107  F       0.00000000       0.00000000       0.00000000
O        3.05359271       1.35146153       3.02679635  F       0.00000000       0.00000000       0.00000000
O        3.05359530       1.35531781       6.10264061  F       0.00000000       0.00000000       0.00000000
O        0.00000000       4.05438459       3.02679635  F       0.00000000       0.00000000       0.00000000
O        0.00000000       1.35146153       3.02679635  F       0.00000000       0.00000000       0.00000000
O        9.16077813       1.35146153       3.02679635  F       0.00000000       0.00000000       0.00000000
O        9.16077827       4.05052947       6.10263005  F       0.00000000       0.00000000       0.00000000
O        0.01836491       6.74576400       9.17904926  T       0.00000000       0.00000000       0.00000000
O        9.19242014       1.34858061       9.20639772  T       0.00000000       0.00000000       0.00000000
O        9.16077740       1.35531546       6.10263307  F       0.00000000       0.00000000       0.00000000
O        6.12158480       4.03580481       9.19985658  T       0.00000000       0.00000000       0.00000000
O        6.10718702       1.35531501       6.10263790  F       0.00000000       0.00000000       0.00000000
O        6.10718706       4.05052983       6.10263604  F       0.00000000       0.00000000       0.00000000
O        6.10718542       1.35146153       3.02679635  F       0.00000000       0.00000000       0.00000000
O        6.10718542       4.05438459       3.02679635  F       0.00000000       0.00000000       0.00000000
O        3.07616482       9.45840197       9.19806380  T       0.00000000       0.00000000       0.00000000
O        3.05359386       6.76116323       6.10263934  F       0.00000000       0.00000000       0.00000000
O        3.05359337       9.45637518       6.10263943  F       0.00000000       0.00000000       0.00000000
O        3.05359271       6.75730765       3.02679635  F       0.00000000       0.00000000       0.00000000
O        3.07058710       6.73676254       9.17464561  T       0.00000000       0.00000000       0.00000000
O        6.10718542       9.46023072       3.02679635  F       0.00000000       0.00000000       0.00000000
O        6.10718542       6.75730765       3.02679635  F       0.00000000       0.00000000       0.00000000
O        6.10718315       9.45637324       6.10264060  F       0.00000000       0.00000000       0.00000000
O        6.10718523       6.76116316       6.10264025  F       0.00000000       0.00000000       0.00000000
O        9.17182266       6.73728576       9.16552827  T       0.00000000       0.00000000       0.00000000
O        9.17063315       9.47218012       9.19324796  T       0.00000000       0.00000000       0.00000000
O        9.16078028       6.76116138       6.10263509  F       0.00000000       0.00000000       0.00000000
O        9.16078018       9.45637411       6.10263910  F       0.00000000       0.00000000       0.00000000
O        9.16077813       6.75730765       3.02679635  F       0.00000000       0.00000000       0.00000000
O        3.05359271       9.46023072       3.02679635  F       0.00000000       0.00000000       0.00000000
O        9.16077813       9.46023072       3.02679635  F       0.00000000       0.00000000       0.00000000
Pd       3.05359414       2.70292461       4.56516084  F       0.00000000       0.00000000       0.00000000
Pd       6.10718542       2.70292306       1.50000000  F       0.00000000       0.00000000       0.00000000
Pd       3.05359287       8.10876720       4.56515841  F       0.00000000       0.00000000       0.00000000
Pd       2.84668332       2.67670611      10.81461227  T       0.00000000       0.00000000       0.00000000
Pd       3.05697732       2.69733518       7.66282271  T       0.00000000       0.00000000       0.00000000
Pd       3.05359271       2.70292306       1.50000000  F       0.00000000       0.00000000       0.00000000
Pd       4.58038906       5.40584612       3.02679635  F       0.00000000       0.00000000       0.00000000
Pd       4.58038878       0.00000011       6.09434618  F       0.00000000       0.00000000       0.00000000
Pd       4.58038808       5.40584530       6.09434913  F       0.00000000       0.00000000       0.00000000
Pd       7.63398177       0.00000000       3.02679635  F       0.00000000       0.00000000       0.00000000
Pd       3.05359271       8.10876919       1.50000000  F       0.00000000       0.00000000       0.00000000
Pd       6.11324101       8.11177444       7.66271878  T       0.00000000       0.00000000       0.00000000
Pd       7.63398372      10.81169054       6.09434173  F       0.00000000       0.00000000       0.00000000
Pd       6.10718498       8.10876457       4.56515665  F       0.00000000       0.00000000       0.00000000
Pd       1.52679863       5.40584339       6.09434623  F       0.00000000       0.00000000       0.00000000
Pd       7.63398177       5.40584612       3.02679635  F       0.00000000       0.00000000       0.00000000
Pd       6.10718542       8.10876919       1.50000000  F       0.00000000       0.00000000       0.00000000
Pd       0.01105556       8.10931289       7.65646979  T       0.00000000       0.00000000       0.00000000
Pd       6.33922638       2.61381615      10.81022411  T       0.00000000       0.00000000       0.00000000
Pd       1.54106073       5.39780319       9.14637696  T       0.00000000       0.00000000       0.00000000
Pd       7.64802845       0.00341157       9.16728335  T       0.00000000       0.00000000       0.00000000
Pd       6.10360379       2.70087768       7.65824232  T       0.00000000       0.00000000       0.00000000
Pd      12.23889130       8.09705204      10.81750029  T       0.00000000       0.00000000       0.00000000
Pd       6.10718636       2.70292272       4.56515365  F       0.00000000       0.00000000       0.00000000
Pd       3.06273071       8.10796485       7.65930904  T       0.00000000       0.00000000       0.00000000
Pd       0.00000286       8.10876728       4.56515590  F       0.00000000       0.00000000       0.00000000
Pd       4.59226624       5.38373624       9.14043720  T       0.00000000       0.00000000       0.00000000
Pd       9.16077813       2.70292306       1.50000000  F       0.00000000       0.00000000       0.00000000
Pd       3.08376294       8.08034491      10.82058036  T       0.00000000       0.00000000       0.00000000
Pd       0.00000000       8.10876919       1.50000000  F       0.00000000       0.00000000       0.00000000
Pd       9.16440156       8.08447387      10.81606453  T       0.00000000       0.00000000       0.00000000
Pd       1.52679635       0.00000000       3.02679635  F       0.00000000       0.00000000       0.00000000
Pd       1.52679635       5.40584612       3.02679635  F       0.00000000       0.00000000       0.00000000
Pd      10.68757448       0.00000000       3.02679635  F       0.00000000       0.00000000       0.00000000
Pd      10.70545843       5.40459507       9.13681499  T       0.00000000       0.00000000       0.00000000
Pd       9.16077751       2.70292195       4.56515514  F       0.00000000       0.00000000       0.00000000
Pd      10.68757769      10.81169125       6.09434037  F       0.00000000       0.00000000       0.00000000
Pd       9.16077986       8.10876364       4.56515811  F       0.00000000       0.00000000       0.00000000
Pd       1.52679695      10.81169175       6.09434358  F       0.00000000       0.00000000       0.00000000
Pd       9.16782369       8.11263647       7.65734925  T       0.00000000       0.00000000       0.00000000
Pd       9.18465134       2.70174207       7.66544650  T       0.00000000       0.00000000       0.00000000
Pd      10.70550419      -0.00594597       9.16207966  T       0.00000000       0.00000000       0.00000000
Pd       0.00000037       2.70292295       4.56515782  F       0.00000000       0.00000000       0.00000000
Pd       1.54636587      10.80207998       9.16181222  T       0.00000000       0.00000000       0.00000000
Pd       9.10878244       2.66282430      10.85512878  T       0.00000000       0.00000000       0.00000000
Pd       6.18948466       8.01255730      10.83923923  T       0.00000000       0.00000000       0.00000000
Pd      12.22529520       2.69860218       7.66186663  T       0.00000000       0.00000000       0.00000000
Pd      10.68757879       5.40584476       6.09434230  F       0.00000000       0.00000000       0.00000000
Pd       9.16077813       8.10876919       1.50000000  F       0.00000000       0.00000000       0.00000000
Pd      10.68757448       5.40584612       3.02679635  F       0.00000000       0.00000000       0.00000000
Pd      12.12804990       2.68370449      10.83287326  T       0.00000000       0.00000000       0.00000000
Pd       4.59742448      10.80267307       9.16952597  T       0.00000000       0.00000000       0.00000000
Pd       7.63398212       5.40584800       6.09434442  F       0.00000000       0.00000000       0.00000000
Pd       7.65201199       5.38981338       9.11852723  T       0.00000000       0.00000000       0.00000000
Pd       4.58038906       0.00000000       3.02679635  F       0.00000000       0.00000000       0.00000000
Pd       0.00000000       2.70292306       1.50000000  F       0.00000000       0.00000000       0.00000000
O        6.88263849       3.73720581      12.33807755  T       0.00000000       0.00000000       0.00000000
C        6.30361983       4.99246971      12.59652453  T       0.00000000       0.00000000       0.00000000
H        6.73878843       5.38600363      13.53644337  T       0.00000000       0.00000000       0.00000000
H        6.51229131       5.75343971      11.78660096  T       0.00000000       0.00000000       0.00000000
H        5.19868385       4.93698581      12.71397022  T       0.00000000       0.00000000       0.00000000
