109
Lattice="12.21437083684855 0.0 7e-16 1.7e-15 10.811692246786171 7e-16 0.0 0.0 29.250333490173453" Properties=species:S:1:pos:R:3:move_mask:L:1:momenta:R:3 adsorbate_info="_JSON {\"site\": {\"coordinates\": [5.3437874103239835, 9.460239382115795, 9.944970321859891], \"connectivity\": 2, \"topology\": [93, 99], \"n_vector\": [-0.08805213966088435, 0.5004809704993067, 0.8612581604079071], \"h_vector\": [-0.43340631038540456, 0.7672567348302107, -0.4727325596738543], \"site_formula\": {\"Pd\": 2}}, \"smiles\": \"ClOC\", \"mdf\": 2.1438301457320894, \"adsorbate_formula\": \"CH3O\"}" mace_E=-558.0873490867724 converged=T n_steps=67 d_min=2.0971519515204 site_type=unknown dE_rel_meV=0 original_idx=115 rank=9 E_MACE=-558.1173966025306 pbc="T T T"
O        6.08921868       1.33300813       9.17645360  T       0.00000000       0.00000000       0.00000000
O        9.16077813       4.05438459       3.02679635  F       0.00000000       0.00000000       0.00000000
O        6.13265994       6.74791841       9.18826787  T       0.00000000       0.00000000       0.00000000
O        6.08576514       9.46806479       9.16681734  T       0.00000000       0.00000000       0.00000000
O        9.15411553       4.03894856       9.21629305  T       0.00000000       0.00000000       0.00000000
O        3.03189845       1.33240336       9.17354213  T       0.00000000       0.00000000       0.00000000
O        0.00000000       6.75730765       3.02679635  F       0.00000000       0.00000000       0.00000000
O        3.04052474       4.06268643       9.18322438  T       0.00000000       0.00000000       0.00000000
O        0.00000378       9.45637311       6.10263459  F       0.00000000       0.00000000       0.00000000
O        0.00000210       6.76116167       6.10263319  F       0.00000000       0.00000000       0.00000000
O       12.20415746       9.44607594       9.21043822  T       0.00000000       0.00000000       0.00000000
O       12.18670461       1.32483770       9.18840682  T       0.00000000       0.00000000       0.00000000
O       12.19166482       4.04129878       9.20818520  T       0.00000000       0.00000000       0.00000000
O        0.00000083       1.35531789       6.10263389  F       0.00000000       0.00000000       0.00000000
O        0.00000111       4.05052849       6.10263306  F       0.00000000       0.00000000       0.00000000
O        3.05359271       4.05438459       3.02679635  F       0.00000000       0.00000000       0.00000000
O        0.00000000       9.46023072       3.02679635  F       0.00000000       0.00000000       0.00000000
O        3.05359462       4.05052721       6.10264107  F       0.00000000       0.00000000       0.00000000
O        3.05359271       1.35146153       3.02679635  F       0.00000000       0.00000000       0.00000000
O        3.05359530       1.35531781       6.10264061  F       0.00000000       0.00000000       0.00000000
O        0.00000000       4.05438459       3.02679635  F       0.00000000       0.00000000       0.00000000
O        0.00000000       1.35146153       3.02679635  F       0.00000000       0.00000000       0.00000000
O        9.16077813       1.35146153       3.02679635  F       0.00000000       0.00000000       0.00000000
O        9.16077827       4.05052947       6.10263005  F       0.00000000       0.00000000       0.00000000
O       -0.01542564       6.74093905       9.20294156  T       0.00000000       0.00000000       0.00000000
O        9.14637924       1.32710368       9.18918181  T       0.00000000       0.00000000       0.00000000
O        9.16077740       1.35531546       6.10263307  F       0.00000000       0.00000000       0.00000000
O        6.09133933       4.06094746       9.18658087  T       0.00000000       0.00000000       0.00000000
O        6.10718702       1.35531501       6.10263790  F       0.00000000       0.00000000       0.00000000
O        6.10718706       4.05052983       6.10263604  F       0.00000000       0.00000000       0.00000000
O        6.10718542       1.35146153       3.02679635  F       0.00000000       0.00000000       0.00000000
O        6.10718542       4.05438459       3.02679635  F       0.00000000       0.00000000       0.00000000
O        3.03511412       9.46749190       9.16971999  T       0.00000000       0.00000000       0.00000000
O        3.05359386       6.76116323       6.10263934  F       0.00000000       0.00000000       0.00000000
O        3.05359337       9.45637518       6.10263943  F       0.00000000       0.00000000       0.00000000
O        3.05359271       6.75730765       3.02679635  F       0.00000000       0.00000000       0.00000000
O        2.99822710       6.74389566       9.18032666  T       0.00000000       0.00000000       0.00000000
O        6.10718542       9.46023072       3.02679635  F       0.00000000       0.00000000       0.00000000
O        6.10718542       6.75730765       3.02679635  F       0.00000000       0.00000000       0.00000000
O        6.10718315       9.45637324       6.10264060  F       0.00000000       0.00000000       0.00000000
O        6.10718523       6.76116316       6.10264025  F       0.00000000       0.00000000       0.00000000
O        9.14524186       6.74153900       9.20925679  T       0.00000000       0.00000000       0.00000000
O        9.12809261       9.44334512       9.21575145  T       0.00000000       0.00000000       0.00000000
O        9.16078028       6.76116138       6.10263509  F       0.00000000       0.00000000       0.00000000
O        9.16078018       9.45637411       6.10263910  F       0.00000000       0.00000000       0.00000000
O        9.16077813       6.75730765       3.02679635  F       0.00000000       0.00000000       0.00000000
O        3.05359271       9.46023072       3.02679635  F       0.00000000       0.00000000       0.00000000
O        9.16077813       9.46023072       3.02679635  F       0.00000000       0.00000000       0.00000000
Pd       3.05359414       2.70292461       4.56516084  F       0.00000000       0.00000000       0.00000000
Pd       6.10718542       2.70292306       1.50000000  F       0.00000000       0.00000000       0.00000000
Pd       3.05359287       8.10876720       4.56515841  F       0.00000000       0.00000000       0.00000000
Pd       3.03414249       2.69743733      10.82333932  T       0.00000000       0.00000000       0.00000000
Pd       3.04286738       2.70147860       7.65775869  T       0.00000000       0.00000000       0.00000000
Pd       3.05359271       2.70292306       1.50000000  F       0.00000000       0.00000000       0.00000000
Pd       4.58038906       5.40584612       3.02679635  F       0.00000000       0.00000000       0.00000000
Pd       4.58038878       0.00000011       6.09434618  F       0.00000000       0.00000000       0.00000000
Pd       4.58038808       5.40584530       6.09434913  F       0.00000000       0.00000000       0.00000000
Pd       7.63398177       0.00000000       3.02679635  F       0.00000000       0.00000000       0.00000000
Pd       3.05359271       8.10876919       1.50000000  F       0.00000000       0.00000000       0.00000000
Pd       6.12133095       8.11624390       7.66501066  T       0.00000000       0.00000000       0.00000000
Pd       7.63398372      10.81169054       6.09434173  F       0.00000000       0.00000000       0.00000000
Pd       6.10718498       8.10876457       4.56515665  F       0.00000000       0.00000000       0.00000000
Pd       1.52679863       5.40584339       6.09434623  F       0.00000000       0.00000000       0.00000000
Pd       7.63398177       5.40584612       3.02679635  F       0.00000000       0.00000000       0.00000000
Pd       6.10718542       8.10876919       1.50000000  F       0.00000000       0.00000000       0.00000000
Pd      -0.01525975       8.10357341       7.66425736  T       0.00000000       0.00000000       0.00000000
Pd       6.05427448       2.69086938      10.82683451  T       0.00000000       0.00000000       0.00000000
Pd       1.49566297       5.38361216       9.15723394  T       0.00000000       0.00000000       0.00000000
Pd       7.61164316      -0.01163717       9.12671341  T       0.00000000       0.00000000       0.00000000
Pd       6.10065068       2.70056043       7.65987548  T       0.00000000       0.00000000       0.00000000
Pd      12.61060761       8.06933011      10.78804523  T       0.00000000       0.00000000       0.00000000
Pd       6.10718636       2.70292272       4.56515365  F       0.00000000       0.00000000       0.00000000
Pd       3.02100280       8.11839533       7.66499444  T       0.00000000       0.00000000       0.00000000
Pd       0.00000286       8.10876728       4.56515590  F       0.00000000       0.00000000       0.00000000
Pd       4.56755514       5.40184380       9.13739020  T       0.00000000       0.00000000       0.00000000
Pd       9.16077813       2.70292306       1.50000000  F       0.00000000       0.00000000       0.00000000
Pd       3.26565289       7.82091501      10.90911454  T       0.00000000       0.00000000       0.00000000
Pd       0.00000000       8.10876919       1.50000000  F       0.00000000       0.00000000       0.00000000
Pd       8.70135122       8.07103415      10.79155471  T       0.00000000       0.00000000       0.00000000
Pd       1.52679635       0.00000000       3.02679635  F       0.00000000       0.00000000       0.00000000
Pd       1.52679635       5.40584612       3.02679635  F       0.00000000       0.00000000       0.00000000
Pd      10.68757448       0.00000000       3.02679635  F       0.00000000       0.00000000       0.00000000
Pd      10.67159571       5.39876832       9.18972770  T       0.00000000       0.00000000       0.00000000
Pd       9.16077751       2.70292195       4.56515514  F       0.00000000       0.00000000       0.00000000
Pd      10.68757769      10.81169125       6.09434037  F       0.00000000       0.00000000       0.00000000
Pd       9.16077986       8.10876364       4.56515811  F       0.00000000       0.00000000       0.00000000
Pd       1.52679695      10.81169175       6.09434358  F       0.00000000       0.00000000       0.00000000
Pd       9.15952772       8.10253192       7.66764909  T       0.00000000       0.00000000       0.00000000
Pd       9.16173672       2.69615352       7.66690350  T       0.00000000       0.00000000       0.00000000
Pd      10.66566141      -0.03061742       9.17282655  T       0.00000000       0.00000000       0.00000000
Pd       0.00000037       2.70292295       4.56515782  F       0.00000000       0.00000000       0.00000000
Pd       1.50736480      10.79967643       9.12552570  T       0.00000000       0.00000000       0.00000000
Pd       9.08218035       2.66294972      10.83792997  T       0.00000000       0.00000000       0.00000000
Pd       5.84930189       7.84612617      10.91236878  T       0.00000000       0.00000000       0.00000000
Pd      12.19787438       2.69476107       7.66522816  T       0.00000000       0.00000000       0.00000000
Pd      10.68757879       5.40584476       6.09434230  F       0.00000000       0.00000000       0.00000000
Pd       9.16077813       8.10876919       1.50000000  F       0.00000000       0.00000000       0.00000000
Pd      10.68757448       5.40584612       3.02679635  F       0.00000000       0.00000000       0.00000000
Pd      12.21406908       2.67592780      10.83187547  T       0.00000000       0.00000000       0.00000000
Pd       4.55945291      10.80337769       9.09984188  T       0.00000000       0.00000000       0.00000000
Pd       7.63398212       5.40584800       6.09434442  F       0.00000000       0.00000000       0.00000000
Pd       7.63539990       5.38303578       9.15942559  T       0.00000000       0.00000000       0.00000000
Pd       4.58038906       0.00000000       3.02679635  F       0.00000000       0.00000000       0.00000000
Pd       0.00000000       2.70292306       1.50000000  F       0.00000000       0.00000000       0.00000000
O        4.53455165       8.64019480      12.36487389  T       0.00000000       0.00000000       0.00000000
C        4.48167720      10.03102136      12.71381850  T       0.00000000       0.00000000       0.00000000
H        4.32244613      10.10796754      13.80650954  T       0.00000000       0.00000000       0.00000000
H        5.43136223      10.53744632      12.45755469  T       0.00000000       0.00000000       0.00000000
H        3.64960654      10.54343498      12.19276517  T       0.00000000       0.00000000       0.00000000
