109
Lattice="12.21437083684855 0.0 7e-16 1.7e-15 10.811692246786171 7e-16 0.0 0.0 29.250333490173453" Properties=species:S:1:pos:R:3:move_mask:L:1:momenta:R:3 adsorbate_info="_JSON {\"site\": {\"coordinates\": [2.5446511436962003, 5.405837501905554, 10.222531872758474], \"connectivity\": 3, \"topology\": [51, 67, 76], \"n_vector\": [-0.06791792057950252, -0.008272984840618345, 0.9976566111573577], \"h_vector\": [-0.43339580759009383, 0.7672630531448363, -0.4727319338083628], \"site_formula\": {\"Pd\": 3}}, \"smiles\": \"ClOC\", \"mdf\": 2.55807711112954, \"adsorbate_formula\": \"CH3O\"}" mace_E=-557.8500478191247 converged=T n_steps=45 d_min=2.4954475623994923 site_type=unknown dE_rel_meV=0 original_idx=52 rank=6 E_MACE=-558.1185593260325 pbc="T T T"
O        6.10146357       1.33123212       9.18682430  T       0.00000000       0.00000000       0.00000000
O        9.16077813       4.05438459       3.02679635  F       0.00000000       0.00000000       0.00000000
O        6.11007331       6.74903854       9.17542421  T       0.00000000       0.00000000       0.00000000
O        6.10487763       9.46222755       9.19436374  T       0.00000000       0.00000000       0.00000000
O        9.15771475       4.05392700       9.19343508  T       0.00000000       0.00000000       0.00000000
O        3.05668011       1.35816468       9.24221467  T       0.00000000       0.00000000       0.00000000
O        0.00000000       6.75730765       3.02679635  F       0.00000000       0.00000000       0.00000000
O        3.05203209       4.07427511       9.14359628  T       0.00000000       0.00000000       0.00000000
O        0.00000378       9.45637311       6.10263459  F       0.00000000       0.00000000       0.00000000
O        0.00000210       6.76116167       6.10263319  F       0.00000000       0.00000000       0.00000000
O       12.21058913       9.46787919       9.19574418  T       0.00000000       0.00000000       0.00000000
O       12.21864012       1.34017570       9.19697093  T       0.00000000       0.00000000       0.00000000
O       12.21002685       4.05633791       9.18541642  T       0.00000000       0.00000000       0.00000000
O        0.00000083       1.35531789       6.10263389  F       0.00000000       0.00000000       0.00000000
O        0.00000111       4.05052849       6.10263306  F       0.00000000       0.00000000       0.00000000
O        3.05359271       4.05438459       3.02679635  F       0.00000000       0.00000000       0.00000000
O        0.00000000       9.46023072       3.02679635  F       0.00000000       0.00000000       0.00000000
O        3.05359462       4.05052721       6.10264107  F       0.00000000       0.00000000       0.00000000
O        3.05359271       1.35146153       3.02679635  F       0.00000000       0.00000000       0.00000000
O        3.05359530       1.35531781       6.10264061  F       0.00000000       0.00000000       0.00000000
O        0.00000000       4.05438459       3.02679635  F       0.00000000       0.00000000       0.00000000
O        0.00000000       1.35146153       3.02679635  F       0.00000000       0.00000000       0.00000000
O        9.16077813       1.35146153       3.02679635  F       0.00000000       0.00000000       0.00000000
O        9.16077827       4.05052947       6.10263005  F       0.00000000       0.00000000       0.00000000
O       -0.00914419       6.74441391       9.18465642  T       0.00000000       0.00000000       0.00000000
O        9.15662591       1.33546992       9.18563334  T       0.00000000       0.00000000       0.00000000
O        9.16077740       1.35531546       6.10263307  F       0.00000000       0.00000000       0.00000000
O        6.10440275       4.06245858       9.16919665  T       0.00000000       0.00000000       0.00000000
O        6.10718702       1.35531501       6.10263790  F       0.00000000       0.00000000       0.00000000
O        6.10718706       4.05052983       6.10263604  F       0.00000000       0.00000000       0.00000000
O        6.10718542       1.35146153       3.02679635  F       0.00000000       0.00000000       0.00000000
O        6.10718542       4.05438459       3.02679635  F       0.00000000       0.00000000       0.00000000
O        3.04768220       9.44426690       9.21882887  T       0.00000000       0.00000000       0.00000000
O        3.05359386       6.76116323       6.10263934  F       0.00000000       0.00000000       0.00000000
O        3.05359337       9.45637518       6.10263943  F       0.00000000       0.00000000       0.00000000
O        3.05359271       6.75730765       3.02679635  F       0.00000000       0.00000000       0.00000000
O        3.04499931       6.75398649       9.16380506  T       0.00000000       0.00000000       0.00000000
O        6.10718542       9.46023072       3.02679635  F       0.00000000       0.00000000       0.00000000
O        6.10718542       6.75730765       3.02679635  F       0.00000000       0.00000000       0.00000000
O        6.10718315       9.45637324       6.10264060  F       0.00000000       0.00000000       0.00000000
O        6.10718523       6.76116316       6.10264025  F       0.00000000       0.00000000       0.00000000
O        9.15883476       6.73918910       9.18503082  T       0.00000000       0.00000000       0.00000000
O        9.16219660       9.45965695       9.19525716  T       0.00000000       0.00000000       0.00000000
O        9.16078028       6.76116138       6.10263509  F       0.00000000       0.00000000       0.00000000
O        9.16078018       9.45637411       6.10263910  F       0.00000000       0.00000000       0.00000000
O        9.16077813       6.75730765       3.02679635  F       0.00000000       0.00000000       0.00000000
O        3.05359271       9.46023072       3.02679635  F       0.00000000       0.00000000       0.00000000
O        9.16077813       9.46023072       3.02679635  F       0.00000000       0.00000000       0.00000000
Pd       3.05359414       2.70292461       4.56516084  F       0.00000000       0.00000000       0.00000000
Pd       6.10718542       2.70292306       1.50000000  F       0.00000000       0.00000000       0.00000000
Pd       3.05359287       8.10876720       4.56515841  F       0.00000000       0.00000000       0.00000000
Pd       3.17467397       2.86732162      10.85931719  T       0.00000000       0.00000000       0.00000000
Pd       3.04780710       2.68685428       7.66714480  T       0.00000000       0.00000000       0.00000000
Pd       3.05359271       2.70292306       1.50000000  F       0.00000000       0.00000000       0.00000000
Pd       4.58038906       5.40584612       3.02679635  F       0.00000000       0.00000000       0.00000000
Pd       4.58038878       0.00000011       6.09434618  F       0.00000000       0.00000000       0.00000000
Pd       4.58038808       5.40584530       6.09434913  F       0.00000000       0.00000000       0.00000000
Pd       7.63398177       0.00000000       3.02679635  F       0.00000000       0.00000000       0.00000000
Pd       3.05359271       8.10876919       1.50000000  F       0.00000000       0.00000000       0.00000000
Pd       6.11609329       8.11282289       7.65942854  T       0.00000000       0.00000000       0.00000000
Pd       7.63398372      10.81169054       6.09434173  F       0.00000000       0.00000000       0.00000000
Pd       6.10718498       8.10876457       4.56515665  F       0.00000000       0.00000000       0.00000000
Pd       1.52679863       5.40584339       6.09434623  F       0.00000000       0.00000000       0.00000000
Pd       7.63398177       5.40584612       3.02679635  F       0.00000000       0.00000000       0.00000000
Pd       6.10718542       8.10876919       1.50000000  F       0.00000000       0.00000000       0.00000000
Pd      -0.00587028       8.11016993       7.66048955  T       0.00000000       0.00000000       0.00000000
Pd       6.12945121       2.70803869      10.82314119  T       0.00000000       0.00000000       0.00000000
Pd       1.51660752       5.40421811       9.12866655  T       0.00000000       0.00000000       0.00000000
Pd       7.63138276      -0.01132309       9.15474533  T       0.00000000       0.00000000       0.00000000
Pd       6.10491936       2.69461421       7.65789840  T       0.00000000       0.00000000       0.00000000
Pd      12.21311883       8.11056306      10.82517544  T       0.00000000       0.00000000       0.00000000
Pd       6.10718636       2.70292272       4.56515365  F       0.00000000       0.00000000       0.00000000
Pd       3.04589191       8.11349575       7.65627637  T       0.00000000       0.00000000       0.00000000
Pd       0.00000286       8.10876728       4.56515590  F       0.00000000       0.00000000       0.00000000
Pd       4.58276751       5.41138450       9.08626550  T       0.00000000       0.00000000       0.00000000
Pd       9.16077813       2.70292306       1.50000000  F       0.00000000       0.00000000       0.00000000
Pd       3.03837408       8.13642080      10.82248696  T       0.00000000       0.00000000       0.00000000
Pd       0.00000000       8.10876919       1.50000000  F       0.00000000       0.00000000       0.00000000
Pd       9.17122428       8.08611223      10.81776313  T       0.00000000       0.00000000       0.00000000
Pd       1.52679635       0.00000000       3.02679635  F       0.00000000       0.00000000       0.00000000
Pd       1.52679635       5.40584612       3.02679635  F       0.00000000       0.00000000       0.00000000
Pd      10.68757448       0.00000000       3.02679635  F       0.00000000       0.00000000       0.00000000
Pd      10.68294824       5.39831396       9.14982176  T       0.00000000       0.00000000       0.00000000
Pd       9.16077751       2.70292195       4.56515514  F       0.00000000       0.00000000       0.00000000
Pd      10.68757769      10.81169125       6.09434037  F       0.00000000       0.00000000       0.00000000
Pd       9.16077986       8.10876364       4.56515811  F       0.00000000       0.00000000       0.00000000
Pd       1.52679695      10.81169175       6.09434358  F       0.00000000       0.00000000       0.00000000
Pd       9.16391600       8.10577293       7.65892653  T       0.00000000       0.00000000       0.00000000
Pd       9.16021386       2.70044158       7.66007558  T       0.00000000       0.00000000       0.00000000
Pd      10.68663375      -0.00344056       9.15988782  T       0.00000000       0.00000000       0.00000000
Pd       0.00000037       2.70292295       4.56515782  F       0.00000000       0.00000000       0.00000000
Pd       1.53073725      10.81483164       9.17852410  T       0.00000000       0.00000000       0.00000000
Pd       9.12386319       2.67585995      10.82781835  T       0.00000000       0.00000000       0.00000000
Pd       5.94835040       8.09127420      10.83367087  T       0.00000000       0.00000000       0.00000000
Pd      12.21568765       2.69696130       7.65933267  T       0.00000000       0.00000000       0.00000000
Pd      10.68757879       5.40584476       6.09434230  F       0.00000000       0.00000000       0.00000000
Pd       9.16077813       8.10876919       1.50000000  F       0.00000000       0.00000000       0.00000000
Pd      10.68757448       5.40584612       3.02679635  F       0.00000000       0.00000000       0.00000000
Pd      12.19935068       2.70516782      10.81945842  T       0.00000000       0.00000000       0.00000000
Pd       4.57383485      10.80817639       9.17092244  T       0.00000000       0.00000000       0.00000000
Pd       7.63398212       5.40584800       6.09434442  F       0.00000000       0.00000000       0.00000000
Pd       7.63263307       5.40147034       9.14383160  T       0.00000000       0.00000000       0.00000000
Pd       4.58038906       0.00000000       3.02679635  F       0.00000000       0.00000000       0.00000000
Pd       0.00000000       2.70292306       1.50000000  F       0.00000000       0.00000000       0.00000000
O        2.93320948       6.89460211      12.34701304  T       0.00000000       0.00000000       0.00000000
C        3.79745712       5.80769071      12.45367530  T       0.00000000       0.00000000       0.00000000
H        3.88684108       5.50770221      13.51825215  T       0.00000000       0.00000000       0.00000000
H        3.42426241       4.89346426      11.87281401  T       0.00000000       0.00000000       0.00000000
H        4.82224925       6.01041989      12.04610326  T       0.00000000       0.00000000       0.00000000
