109
Lattice="12.21437083684855 0.0 7e-16 1.7e-15 10.811692246786171 7e-16 0.0 0.0 29.250333490173453" Properties=species:S:1:pos:R:3:move_mask:L:1:momenta:R:3 adsorbate_info="_JSON {\"site\": {\"coordinates\": [11.705435179192827, 5.405845329451482, 10.222523439007693], \"connectivity\": 3, \"topology\": [70, 82, 98], \"n_vector\": [-0.04175907004764046, -0.003740625977926167, 0.999120707315212], \"h_vector\": [-0.43339850067726543, 0.7672619282959967, -0.472731290479282], \"site_formula\": {\"Pd\": 3}}, \"smiles\": \"ClOC\", \"mdf\": 2.3064153338445896, \"adsorbate_formula\": \"CH3O\"}" mace_E=-558.0837041624962 converged=T n_steps=88 d_min=1.961654682840073 site_type=unknown dE_rel_meV=0 original_idx=249 rank=132 E_MACE=-557.8603497668515 pbc="T T T"
O        6.10545189       1.37615420       9.21453278  T       0.00000000       0.00000000       0.00000000
O        9.16077813       4.05438459       3.02679635  F       0.00000000       0.00000000       0.00000000
O        6.13025922       6.78055216       9.21939646  T       0.00000000       0.00000000       0.00000000
O        6.11159289       9.48339762       9.20074785  T       0.00000000       0.00000000       0.00000000
O        9.16620843       4.08217948       9.16026292  T       0.00000000       0.00000000       0.00000000
O        3.07154227       1.37548880       9.21559497  T       0.00000000       0.00000000       0.00000000
O        0.00000000       6.75730765       3.02679635  F       0.00000000       0.00000000       0.00000000
O        3.06464114       4.09345928       9.18013884  T       0.00000000       0.00000000       0.00000000
O        0.00000378       9.45637311       6.10263459  F       0.00000000       0.00000000       0.00000000
O        0.00000210       6.76116167       6.10263319  F       0.00000000       0.00000000       0.00000000
O       12.26189388       9.48660354       9.17970650  T       0.00000000       0.00000000       0.00000000
O       12.22042384       1.35854071       9.19189529  T       0.00000000       0.00000000       0.00000000
O       12.22379631       4.08594194       9.15592220  T       0.00000000       0.00000000       0.00000000
O        0.00000083       1.35531789       6.10263389  F       0.00000000       0.00000000       0.00000000
O        0.00000111       4.05052849       6.10263306  F       0.00000000       0.00000000       0.00000000
O        3.05359271       4.05438459       3.02679635  F       0.00000000       0.00000000       0.00000000
O        0.00000000       9.46023072       3.02679635  F       0.00000000       0.00000000       0.00000000
O        3.05359462       4.05052721       6.10264107  F       0.00000000       0.00000000       0.00000000
O        3.05359271       1.35146153       3.02679635  F       0.00000000       0.00000000       0.00000000
O        3.05359530       1.35531781       6.10264061  F       0.00000000       0.00000000       0.00000000
O        0.00000000       4.05438459       3.02679635  F       0.00000000       0.00000000       0.00000000
O        0.00000000       1.35146153       3.02679635  F       0.00000000       0.00000000       0.00000000
O        9.16077813       1.35146153       3.02679635  F       0.00000000       0.00000000       0.00000000
O        9.16077827       4.05052947       6.10263005  F       0.00000000       0.00000000       0.00000000
O        0.00611761       6.75935656       9.16157243  T       0.00000000       0.00000000       0.00000000
O        9.16401643       1.35864357       9.18416953  T       0.00000000       0.00000000       0.00000000
O        9.16077740       1.35531546       6.10263307  F       0.00000000       0.00000000       0.00000000
O        6.10900646       4.09510848       9.18242399  T       0.00000000       0.00000000       0.00000000
O        6.10718702       1.35531501       6.10263790  F       0.00000000       0.00000000       0.00000000
O        6.10718706       4.05052983       6.10263604  F       0.00000000       0.00000000       0.00000000
O        6.10718542       1.35146153       3.02679635  F       0.00000000       0.00000000       0.00000000
O        6.10718542       4.05438459       3.02679635  F       0.00000000       0.00000000       0.00000000
O        3.05988120       9.48717100       9.19820439  T       0.00000000       0.00000000       0.00000000
O        3.05359386       6.76116323       6.10263934  F       0.00000000       0.00000000       0.00000000
O        3.05359337       9.45637518       6.10263943  F       0.00000000       0.00000000       0.00000000
O        3.05359271       6.75730765       3.02679635  F       0.00000000       0.00000000       0.00000000
O        3.04670834       6.78568234       9.21420872  T       0.00000000       0.00000000       0.00000000
O        6.10718542       9.46023072       3.02679635  F       0.00000000       0.00000000       0.00000000
O        6.10718542       6.75730765       3.02679635  F       0.00000000       0.00000000       0.00000000
O        6.10718315       9.45637324       6.10264060  F       0.00000000       0.00000000       0.00000000
O        6.10718523       6.76116316       6.10264025  F       0.00000000       0.00000000       0.00000000
O        9.16989607       6.76030953       9.16305728  T       0.00000000       0.00000000       0.00000000
O        9.12616327       9.48656318       9.16887885  T       0.00000000       0.00000000       0.00000000
O        9.16078028       6.76116138       6.10263509  F       0.00000000       0.00000000       0.00000000
O        9.16078018       9.45637411       6.10263910  F       0.00000000       0.00000000       0.00000000
O        9.16077813       6.75730765       3.02679635  F       0.00000000       0.00000000       0.00000000
O        3.05359271       9.46023072       3.02679635  F       0.00000000       0.00000000       0.00000000
O        9.16077813       9.46023072       3.02679635  F       0.00000000       0.00000000       0.00000000
Pd       3.05359414       2.70292461       4.56516084  F       0.00000000       0.00000000       0.00000000
Pd       6.10718542       2.70292306       1.50000000  F       0.00000000       0.00000000       0.00000000
Pd       3.05359287       8.10876720       4.56515841  F       0.00000000       0.00000000       0.00000000
Pd       3.01438139       2.75753245      10.82940405  T       0.00000000       0.00000000       0.00000000
Pd       3.06837625       2.71366427       7.66541194  T       0.00000000       0.00000000       0.00000000
Pd       3.05359271       2.70292306       1.50000000  F       0.00000000       0.00000000       0.00000000
Pd       4.58038906       5.40584612       3.02679635  F       0.00000000       0.00000000       0.00000000
Pd       4.58038878       0.00000011       6.09434618  F       0.00000000       0.00000000       0.00000000
Pd       4.58038808       5.40584530       6.09434913  F       0.00000000       0.00000000       0.00000000
Pd       7.63398177       0.00000000       3.02679635  F       0.00000000       0.00000000       0.00000000
Pd       3.05359271       8.10876919       1.50000000  F       0.00000000       0.00000000       0.00000000
Pd       6.10592258       8.11667774       7.66687100  T       0.00000000       0.00000000       0.00000000
Pd       7.63398372      10.81169054       6.09434173  F       0.00000000       0.00000000       0.00000000
Pd       6.10718498       8.10876457       4.56515665  F       0.00000000       0.00000000       0.00000000
Pd       1.52679863       5.40584339       6.09434623  F       0.00000000       0.00000000       0.00000000
Pd       7.63398177       5.40584612       3.02679635  F       0.00000000       0.00000000       0.00000000
Pd       6.10718542       8.10876919       1.50000000  F       0.00000000       0.00000000       0.00000000
Pd       0.02446677       8.10744888       7.66251514  T       0.00000000       0.00000000       0.00000000
Pd       6.18290698       2.76553873      10.82957572  T       0.00000000       0.00000000       0.00000000
Pd       1.53294039       5.43164944       9.11774859  T       0.00000000       0.00000000       0.00000000
Pd       7.62137307       0.03415281       9.14357710  T       0.00000000       0.00000000       0.00000000
Pd       6.09908708       2.71531900       7.66581763  T       0.00000000       0.00000000       0.00000000
Pd      11.98895875       8.39299912      10.90330382  T       0.00000000       0.00000000       0.00000000
Pd       6.10718636       2.70292272       4.56515365  F       0.00000000       0.00000000       0.00000000
Pd       3.06438502       8.12069495       7.66460137  T       0.00000000       0.00000000       0.00000000
Pd       0.00000286       8.10876728       4.56515590  F       0.00000000       0.00000000       0.00000000
Pd       4.58652084       5.44939800       9.17371279  T       0.00000000       0.00000000       0.00000000
Pd       9.16077813       2.70292306       1.50000000  F       0.00000000       0.00000000       0.00000000
Pd       2.62610114       8.16624750      10.78894136  T       0.00000000       0.00000000       0.00000000
Pd       0.00000000       8.10876919       1.50000000  F       0.00000000       0.00000000       0.00000000
Pd       9.40544211       8.38916942      10.89460525  T       0.00000000       0.00000000       0.00000000
Pd       1.52679635       0.00000000       3.02679635  F       0.00000000       0.00000000       0.00000000
Pd       1.52679635       5.40584612       3.02679635  F       0.00000000       0.00000000       0.00000000
Pd      10.68757448       0.00000000       3.02679635  F       0.00000000       0.00000000       0.00000000
Pd      10.69442142       5.42396112       9.07860817  T       0.00000000       0.00000000       0.00000000
Pd       9.16077751       2.70292195       4.56515514  F       0.00000000       0.00000000       0.00000000
Pd      10.68757769      10.81169125       6.09434037  F       0.00000000       0.00000000       0.00000000
Pd       9.16077986       8.10876364       4.56515811  F       0.00000000       0.00000000       0.00000000
Pd       1.52679695      10.81169175       6.09434358  F       0.00000000       0.00000000       0.00000000
Pd       9.13972692       8.10617707       7.65825012  T       0.00000000       0.00000000       0.00000000
Pd       9.15454406       2.70779225       7.65482948  T       0.00000000       0.00000000       0.00000000
Pd      10.69310590       0.02109866       9.13602632  T       0.00000000       0.00000000       0.00000000
Pd       0.00000037       2.70292295       4.56515782  F       0.00000000       0.00000000       0.00000000
Pd       1.55139731      10.84621819       9.15339334  T       0.00000000       0.00000000       0.00000000
Pd       9.19327624       2.73824056      10.82432992  T       0.00000000       0.00000000       0.00000000
Pd       6.54206272       8.16337497      10.79609510  T       0.00000000       0.00000000       0.00000000
Pd      12.22742882       2.70677827       7.65606437  T       0.00000000       0.00000000       0.00000000
Pd      10.68757879       5.40584476       6.09434230  F       0.00000000       0.00000000       0.00000000
Pd       9.16077813       8.10876919       1.50000000  F       0.00000000       0.00000000       0.00000000
Pd      10.68757448       5.40584612       3.02679635  F       0.00000000       0.00000000       0.00000000
Pd      12.20187211       2.74029683      10.82605179  T       0.00000000       0.00000000       0.00000000
Pd       4.58828196      10.82928622       9.18348339  T       0.00000000       0.00000000       0.00000000
Pd       7.63398212       5.40584800       6.09434442  F       0.00000000       0.00000000       0.00000000
Pd       7.64545837       5.42804649       9.12498430  T       0.00000000       0.00000000       0.00000000
Pd       4.58038906       0.00000000       3.02679635  F       0.00000000       0.00000000       0.00000000
Pd       0.00000000       2.70292306       1.50000000  F       0.00000000       0.00000000       0.00000000
O       10.68864735       7.50537385      12.31952761  T       0.00000000       0.00000000       0.00000000
C       10.68920849       6.08040077      12.49665469  T       0.00000000       0.00000000       0.00000000
H       10.73449044       5.85837098      13.57897316  T       0.00000000       0.00000000       0.00000000
H        9.76925839       5.63189169      12.07310386  T       0.00000000       0.00000000       0.00000000
H       11.56435506       5.62127856      11.99654857  T       0.00000000       0.00000000       0.00000000
