109
Lattice="12.21437083684855 0.0 7e-16 1.7e-15 10.811692246786171 7e-16 0.0 0.0 29.250333490173453" Properties=species:S:1:pos:R:3:move_mask:L:1:momenta:R:3 adsorbate_info="_JSON {\"site\": {\"coordinates\": [3.8169817422190326, 9.460230856040356, 9.94496837397391], \"connectivity\": 2, \"topology\": [76, 99], \"n_vector\": [0.007441084103221007, 0.494647978767532, 0.8690615670759835], \"h_vector\": [-0.43340235555049145, -0.7672601798964185, 0.47273059404760437], \"site_formula\": {\"Pd\": 2}}, \"smiles\": \"ClOC\", \"mdf\": 2.3965168296671027, \"adsorbate_formula\": \"CH3O\"}" mace_E=-557.8637952504037 converged=T n_steps=67 d_min=2.4425238351796468 site_type=unknown dE_rel_meV=0 original_idx=86 rank=131 E_MACE=-557.8604864253728 pbc="T T T"
O        6.10402072       1.33674159       9.17576495  T       0.00000000       0.00000000       0.00000000
O        9.16077813       4.05438459       3.02679635  F       0.00000000       0.00000000       0.00000000
O        6.12345920       6.74760101       9.18764407  T       0.00000000       0.00000000       0.00000000
O        6.11274234       9.45944935       9.17467844  T       0.00000000       0.00000000       0.00000000
O        9.16092251       4.04959437       9.20108146  T       0.00000000       0.00000000       0.00000000
O        3.05180182       1.32938602       9.17748497  T       0.00000000       0.00000000       0.00000000
O        0.00000000       6.75730765       3.02679635  F       0.00000000       0.00000000       0.00000000
O        3.05825745       4.05838663       9.20088292  T       0.00000000       0.00000000       0.00000000
O        0.00000378       9.45637311       6.10263459  F       0.00000000       0.00000000       0.00000000
O        0.00000210       6.76116167       6.10263319  F       0.00000000       0.00000000       0.00000000
O       12.21059702       9.45707132       9.19898183  T       0.00000000       0.00000000       0.00000000
O       12.21647356       1.33077694       9.18893155  T       0.00000000       0.00000000       0.00000000
O       12.21186714       4.04988290       9.20767363  T       0.00000000       0.00000000       0.00000000
O        0.00000083       1.35531789       6.10263389  F       0.00000000       0.00000000       0.00000000
O        0.00000111       4.05052849       6.10263306  F       0.00000000       0.00000000       0.00000000
O        3.05359271       4.05438459       3.02679635  F       0.00000000       0.00000000       0.00000000
O        0.00000000       9.46023072       3.02679635  F       0.00000000       0.00000000       0.00000000
O        3.05359462       4.05052721       6.10264107  F       0.00000000       0.00000000       0.00000000
O        3.05359271       1.35146153       3.02679635  F       0.00000000       0.00000000       0.00000000
O        3.05359530       1.35531781       6.10264061  F       0.00000000       0.00000000       0.00000000
O        0.00000000       4.05438459       3.02679635  F       0.00000000       0.00000000       0.00000000
O        0.00000000       1.35146153       3.02679635  F       0.00000000       0.00000000       0.00000000
O        9.16077813       1.35146153       3.02679635  F       0.00000000       0.00000000       0.00000000
O        9.16077827       4.05052947       6.10263005  F       0.00000000       0.00000000       0.00000000
O       -0.00983776       6.73814683       9.19494968  T       0.00000000       0.00000000       0.00000000
O        9.16392020       1.33733359       9.19353206  T       0.00000000       0.00000000       0.00000000
O        9.16077740       1.35531546       6.10263307  F       0.00000000       0.00000000       0.00000000
O        6.11092243       4.05308998       9.20716935  T       0.00000000       0.00000000       0.00000000
O        6.10718702       1.35531501       6.10263790  F       0.00000000       0.00000000       0.00000000
O        6.10718706       4.05052983       6.10263604  F       0.00000000       0.00000000       0.00000000
O        6.10718542       1.35146153       3.02679635  F       0.00000000       0.00000000       0.00000000
O        6.10718542       4.05438459       3.02679635  F       0.00000000       0.00000000       0.00000000
O        3.05803612       9.44020149       9.19726865  T       0.00000000       0.00000000       0.00000000
O        3.05359386       6.76116323       6.10263934  F       0.00000000       0.00000000       0.00000000
O        3.05359337       9.45637518       6.10263943  F       0.00000000       0.00000000       0.00000000
O        3.05359271       6.75730765       3.02679635  F       0.00000000       0.00000000       0.00000000
O        3.04797114       6.74701568       9.17481278  T       0.00000000       0.00000000       0.00000000
O        6.10718542       9.46023072       3.02679635  F       0.00000000       0.00000000       0.00000000
O        6.10718542       6.75730765       3.02679635  F       0.00000000       0.00000000       0.00000000
O        6.10718315       9.45637324       6.10264060  F       0.00000000       0.00000000       0.00000000
O        6.10718523       6.76116316       6.10264025  F       0.00000000       0.00000000       0.00000000
O        9.16124880       6.74194918       9.19260516  T       0.00000000       0.00000000       0.00000000
O        9.15391992       9.46300521       9.19438990  T       0.00000000       0.00000000       0.00000000
O        9.16078028       6.76116138       6.10263509  F       0.00000000       0.00000000       0.00000000
O        9.16078018       9.45637411       6.10263910  F       0.00000000       0.00000000       0.00000000
O        9.16077813       6.75730765       3.02679635  F       0.00000000       0.00000000       0.00000000
O        3.05359271       9.46023072       3.02679635  F       0.00000000       0.00000000       0.00000000
O        9.16077813       9.46023072       3.02679635  F       0.00000000       0.00000000       0.00000000
Pd       3.05359414       2.70292461       4.56516084  F       0.00000000       0.00000000       0.00000000
Pd       6.10718542       2.70292306       1.50000000  F       0.00000000       0.00000000       0.00000000
Pd       3.05359287       8.10876720       4.56515841  F       0.00000000       0.00000000       0.00000000
Pd       3.07378069       2.68881752      10.82784587  T       0.00000000       0.00000000       0.00000000
Pd       3.05287321       2.70218620       7.66282710  T       0.00000000       0.00000000       0.00000000
Pd       3.05359271       2.70292306       1.50000000  F       0.00000000       0.00000000       0.00000000
Pd       4.58038906       5.40584612       3.02679635  F       0.00000000       0.00000000       0.00000000
Pd       4.58038878       0.00000011       6.09434618  F       0.00000000       0.00000000       0.00000000
Pd       4.58038808       5.40584530       6.09434913  F       0.00000000       0.00000000       0.00000000
Pd       7.63398177       0.00000000       3.02679635  F       0.00000000       0.00000000       0.00000000
Pd       3.05359271       8.10876919       1.50000000  F       0.00000000       0.00000000       0.00000000
Pd       6.12143370       8.10777920       7.65811430  T       0.00000000       0.00000000       0.00000000
Pd       7.63398372      10.81169054       6.09434173  F       0.00000000       0.00000000       0.00000000
Pd       6.10718498       8.10876457       4.56515665  F       0.00000000       0.00000000       0.00000000
Pd       1.52679863       5.40584339       6.09434623  F       0.00000000       0.00000000       0.00000000
Pd       7.63398177       5.40584612       3.02679635  F       0.00000000       0.00000000       0.00000000
Pd       6.10718542       8.10876919       1.50000000  F       0.00000000       0.00000000       0.00000000
Pd      -0.00718310       8.10581207       7.66234148  T       0.00000000       0.00000000       0.00000000
Pd       6.08677843       2.67072950      10.83887251  T       0.00000000       0.00000000       0.00000000
Pd       1.52102795       5.39412331       9.16581932  T       0.00000000       0.00000000       0.00000000
Pd       7.63190681      -0.00405293       9.14490251  T       0.00000000       0.00000000       0.00000000
Pd       6.10885879       2.70243360       7.66338350  T       0.00000000       0.00000000       0.00000000
Pd      12.14746821       8.07950527      10.82236631  T       0.00000000       0.00000000       0.00000000
Pd       6.10718636       2.70292272       4.56515365  F       0.00000000       0.00000000       0.00000000
Pd       3.04774035       8.11047155       7.65537787  T       0.00000000       0.00000000       0.00000000
Pd       0.00000286       8.10876728       4.56515590  F       0.00000000       0.00000000       0.00000000
Pd       4.58839044       5.39725448       9.15848051  T       0.00000000       0.00000000       0.00000000
Pd       9.16077813       2.70292306       1.50000000  F       0.00000000       0.00000000       0.00000000
Pd       3.14904037       7.95525555      10.82241144  T       0.00000000       0.00000000       0.00000000
Pd       0.00000000       8.10876919       1.50000000  F       0.00000000       0.00000000       0.00000000
Pd       9.11929904       8.09966959      10.82700378  T       0.00000000       0.00000000       0.00000000
Pd       1.52679635       0.00000000       3.02679635  F       0.00000000       0.00000000       0.00000000
Pd       1.52679635       5.40584612       3.02679635  F       0.00000000       0.00000000       0.00000000
Pd      10.68757448       0.00000000       3.02679635  F       0.00000000       0.00000000       0.00000000
Pd      10.68469663       5.39445890       9.16552230  T       0.00000000       0.00000000       0.00000000
Pd       9.16077751       2.70292195       4.56515514  F       0.00000000       0.00000000       0.00000000
Pd      10.68757769      10.81169125       6.09434037  F       0.00000000       0.00000000       0.00000000
Pd       9.16077986       8.10876364       4.56515811  F       0.00000000       0.00000000       0.00000000
Pd       1.52679695      10.81169175       6.09434358  F       0.00000000       0.00000000       0.00000000
Pd       9.16225627       8.10644926       7.66312506  T       0.00000000       0.00000000       0.00000000
Pd       9.16193304       2.69775717       7.66422661  T       0.00000000       0.00000000       0.00000000
Pd      10.68595687      -0.01218207       9.15923831  T       0.00000000       0.00000000       0.00000000
Pd       0.00000037       2.70292295       4.56515782  F       0.00000000       0.00000000       0.00000000
Pd       1.52852908      10.79424235       9.15123824  T       0.00000000       0.00000000       0.00000000
Pd       9.17102908       2.69109352      10.83490597  T       0.00000000       0.00000000       0.00000000
Pd       5.94270368       8.03109073      10.84822758  T       0.00000000       0.00000000       0.00000000
Pd      12.21451504       2.69712387       7.66432172  T       0.00000000       0.00000000       0.00000000
Pd      10.68757879       5.40584476       6.09434230  F       0.00000000       0.00000000       0.00000000
Pd       9.16077813       8.10876919       1.50000000  F       0.00000000       0.00000000       0.00000000
Pd      10.68757448       5.40584612       3.02679635  F       0.00000000       0.00000000       0.00000000
Pd      12.22786091       2.67766378      10.83675260  T       0.00000000       0.00000000       0.00000000
Pd       4.58145000      10.80074638       9.11142744  T       0.00000000       0.00000000       0.00000000
Pd       7.63398212       5.40584800       6.09434442  F       0.00000000       0.00000000       0.00000000
Pd       7.63839055       5.39512341       9.15968356  T       0.00000000       0.00000000       0.00000000
Pd       4.58038906       0.00000000       3.02679635  F       0.00000000       0.00000000       0.00000000
Pd       0.00000000       2.70292306       1.50000000  F       0.00000000       0.00000000       0.00000000
O        3.33706153       9.13581839      12.39645289  T       0.00000000       0.00000000       0.00000000
C        4.54273591       9.81016078      12.48312918  T       0.00000000       0.00000000       0.00000000
H        4.66122018      10.24956590      13.49489592  T       0.00000000       0.00000000       0.00000000
H        5.49002962       9.12025421      12.38594490  T       0.00000000       0.00000000       0.00000000
H        4.67413409      10.60355880      11.70688465  T       0.00000000       0.00000000       0.00000000
