109
Lattice="12.21437083684855 0.0 7e-16 1.7e-15 10.811692246786171 7e-16 0.0 0.0 29.250333490173453" Properties=species:S:1:pos:R:3:move_mask:L:1:momenta:R:3 adsorbate_info="_JSON {\"site\": {\"coordinates\": [5.5982538721438635, 7.136220089456866e-06, 10.222522278498817], \"connectivity\": 3, \"topology\": [66, 93, 99], \"n_vector\": [-0.05499450732067821, 0.015182228146802361, 0.9983712256035098], \"h_vector\": [-0.4334039152999076, -0.7672618914230773, -0.47272638616073925], \"site_formula\": {\"Pd\": 3}}, \"smiles\": \"ClOC\", \"mdf\": 2.515077086751238, \"adsorbate_formula\": \"CH3O\"}" mace_E=-557.8604864253728 converged=T n_steps=58 d_min=1.9048212520256447 site_type=unknown dE_rel_meV=0 original_idx=117 rank=128 E_MACE=-557.8611351788057 pbc="T T T"
O        6.10034578       1.31143752       9.14782644  T       0.00000000       0.00000000       0.00000000
O        9.16077813       4.05438459       3.02679635  F       0.00000000       0.00000000       0.00000000
O        6.11441171       6.74369614       9.17344582  T       0.00000000       0.00000000       0.00000000
O        6.10521016       9.43511008       9.19439698  T       0.00000000       0.00000000       0.00000000
O        9.15488981       4.04229805       9.20346827  T       0.00000000       0.00000000       0.00000000
O        3.04565966       1.32502458       9.17051649  T       0.00000000       0.00000000       0.00000000
O        0.00000000       6.75730765       3.02679635  F       0.00000000       0.00000000       0.00000000
O        3.05264611       4.05287355       9.20517919  T       0.00000000       0.00000000       0.00000000
O        0.00000378       9.45637311       6.10263459  F       0.00000000       0.00000000       0.00000000
O        0.00000210       6.76116167       6.10263319  F       0.00000000       0.00000000       0.00000000
O       12.20746887       9.45061485       9.21237538  T       0.00000000       0.00000000       0.00000000
O       12.20386361       1.32653883       9.17892069  T       0.00000000       0.00000000       0.00000000
O       12.20877453       4.04717588       9.20226773  T       0.00000000       0.00000000       0.00000000
O        0.00000083       1.35531789       6.10263389  F       0.00000000       0.00000000       0.00000000
O        0.00000111       4.05052849       6.10263306  F       0.00000000       0.00000000       0.00000000
O        3.05359271       4.05438459       3.02679635  F       0.00000000       0.00000000       0.00000000
O        0.00000000       9.46023072       3.02679635  F       0.00000000       0.00000000       0.00000000
O        3.05359462       4.05052721       6.10264107  F       0.00000000       0.00000000       0.00000000
O        3.05359271       1.35146153       3.02679635  F       0.00000000       0.00000000       0.00000000
O        3.05359530       1.35531781       6.10264061  F       0.00000000       0.00000000       0.00000000
O        0.00000000       4.05438459       3.02679635  F       0.00000000       0.00000000       0.00000000
O        0.00000000       1.35146153       3.02679635  F       0.00000000       0.00000000       0.00000000
O        9.16077813       1.35146153       3.02679635  F       0.00000000       0.00000000       0.00000000
O        9.16077827       4.05052947       6.10263005  F       0.00000000       0.00000000       0.00000000
O       -0.00823679       6.73315442       9.19120984  T       0.00000000       0.00000000       0.00000000
O        9.15652701       1.32489665       9.16939649  T       0.00000000       0.00000000       0.00000000
O        9.16077740       1.35531546       6.10263307  F       0.00000000       0.00000000       0.00000000
O        6.10008442       4.03059477       9.21841138  T       0.00000000       0.00000000       0.00000000
O        6.10718702       1.35531501       6.10263790  F       0.00000000       0.00000000       0.00000000
O        6.10718706       4.05052983       6.10263604  F       0.00000000       0.00000000       0.00000000
O        6.10718542       1.35146153       3.02679635  F       0.00000000       0.00000000       0.00000000
O        6.10718542       4.05438459       3.02679635  F       0.00000000       0.00000000       0.00000000
O        3.03618182       9.44976278       9.19934261  T       0.00000000       0.00000000       0.00000000
O        3.05359386       6.76116323       6.10263934  F       0.00000000       0.00000000       0.00000000
O        3.05359337       9.45637518       6.10263943  F       0.00000000       0.00000000       0.00000000
O        3.05359271       6.75730765       3.02679635  F       0.00000000       0.00000000       0.00000000
O        3.04169716       6.73748029       9.18761680  T       0.00000000       0.00000000       0.00000000
O        6.10718542       9.46023072       3.02679635  F       0.00000000       0.00000000       0.00000000
O        6.10718542       6.75730765       3.02679635  F       0.00000000       0.00000000       0.00000000
O        6.10718315       9.45637324       6.10264060  F       0.00000000       0.00000000       0.00000000
O        6.10718523       6.76116316       6.10264025  F       0.00000000       0.00000000       0.00000000
O        9.15514177       6.72321297       9.18055919  T       0.00000000       0.00000000       0.00000000
O        9.16058660       9.44758051       9.20329097  T       0.00000000       0.00000000       0.00000000
O        9.16078028       6.76116138       6.10263509  F       0.00000000       0.00000000       0.00000000
O        9.16078018       9.45637411       6.10263910  F       0.00000000       0.00000000       0.00000000
O        9.16077813       6.75730765       3.02679635  F       0.00000000       0.00000000       0.00000000
O        3.05359271       9.46023072       3.02679635  F       0.00000000       0.00000000       0.00000000
O        9.16077813       9.46023072       3.02679635  F       0.00000000       0.00000000       0.00000000
Pd       3.05359414       2.70292461       4.56516084  F       0.00000000       0.00000000       0.00000000
Pd       6.10718542       2.70292306       1.50000000  F       0.00000000       0.00000000       0.00000000
Pd       3.05359287       8.10876720       4.56515841  F       0.00000000       0.00000000       0.00000000
Pd       3.07766992       2.66250584      10.82140891  T       0.00000000       0.00000000       0.00000000
Pd       3.04897585       2.70087273       7.66036968  T       0.00000000       0.00000000       0.00000000
Pd       3.05359271       2.70292306       1.50000000  F       0.00000000       0.00000000       0.00000000
Pd       4.58038906       5.40584612       3.02679635  F       0.00000000       0.00000000       0.00000000
Pd       4.58038878       0.00000011       6.09434618  F       0.00000000       0.00000000       0.00000000
Pd       4.58038808       5.40584530       6.09434913  F       0.00000000       0.00000000       0.00000000
Pd       7.63398177       0.00000000       3.02679635  F       0.00000000       0.00000000       0.00000000
Pd       3.05359271       8.10876919       1.50000000  F       0.00000000       0.00000000       0.00000000
Pd       6.11465647       8.10558381       7.65078570  T       0.00000000       0.00000000       0.00000000
Pd       7.63398372      10.81169054       6.09434173  F       0.00000000       0.00000000       0.00000000
Pd       6.10718498       8.10876457       4.56515665  F       0.00000000       0.00000000       0.00000000
Pd       1.52679863       5.40584339       6.09434623  F       0.00000000       0.00000000       0.00000000
Pd       7.63398177       5.40584612       3.02679635  F       0.00000000       0.00000000       0.00000000
Pd       6.10718542       8.10876919       1.50000000  F       0.00000000       0.00000000       0.00000000
Pd      -0.00527636       8.10470650       7.66466405  T       0.00000000       0.00000000       0.00000000
Pd       6.05825504       2.56944227      10.84290233  T       0.00000000       0.00000000       0.00000000
Pd       1.51979014       5.39193273       9.16455008  T       0.00000000       0.00000000       0.00000000
Pd       7.63447110      -0.02436437       9.12581327  T       0.00000000       0.00000000       0.00000000
Pd       6.10198909       2.69862951       7.66197089  T       0.00000000       0.00000000       0.00000000
Pd      12.22865527       8.07058007      10.83445740  T       0.00000000       0.00000000       0.00000000
Pd       6.10718636       2.70292272       4.56515365  F       0.00000000       0.00000000       0.00000000
Pd       3.03674766       8.10414139       7.66123375  T       0.00000000       0.00000000       0.00000000
Pd       0.00000286       8.10876728       4.56515590  F       0.00000000       0.00000000       0.00000000
Pd       4.57950711       5.38865733       9.15421531  T       0.00000000       0.00000000       0.00000000
Pd       9.16077813       2.70292306       1.50000000  F       0.00000000       0.00000000       0.00000000
Pd       3.15687810       8.04919923      10.83626835  T       0.00000000       0.00000000       0.00000000
Pd       0.00000000       8.10876919       1.50000000  F       0.00000000       0.00000000       0.00000000
Pd       9.14349509       8.06553367      10.83118341  T       0.00000000       0.00000000       0.00000000
Pd       1.52679635       0.00000000       3.02679635  F       0.00000000       0.00000000       0.00000000
Pd       1.52679635       5.40584612       3.02679635  F       0.00000000       0.00000000       0.00000000
Pd      10.68757448       0.00000000       3.02679635  F       0.00000000       0.00000000       0.00000000
Pd      10.68139629       5.38781552       9.16132876  T       0.00000000       0.00000000       0.00000000
Pd       9.16077751       2.70292195       4.56515514  F       0.00000000       0.00000000       0.00000000
Pd      10.68757769      10.81169125       6.09434037  F       0.00000000       0.00000000       0.00000000
Pd       9.16077986       8.10876364       4.56515811  F       0.00000000       0.00000000       0.00000000
Pd       1.52679695      10.81169175       6.09434358  F       0.00000000       0.00000000       0.00000000
Pd       9.16270566       8.10056872       7.66208632  T       0.00000000       0.00000000       0.00000000
Pd       9.16107862       2.69872630       7.65838889  T       0.00000000       0.00000000       0.00000000
Pd      10.68182631      -0.02042054       9.16061466  T       0.00000000       0.00000000       0.00000000
Pd       0.00000037       2.70292295       4.56515782  F       0.00000000       0.00000000       0.00000000
Pd       1.51592347      10.79484887       9.15316067  T       0.00000000       0.00000000       0.00000000
Pd       9.11669603       2.65364442      10.82626386  T       0.00000000       0.00000000       0.00000000
Pd       6.01965530       7.98708637      10.80830328  T       0.00000000       0.00000000       0.00000000
Pd      12.21232787       2.69906023       7.65943178  T       0.00000000       0.00000000       0.00000000
Pd      10.68757879       5.40584476       6.09434230  F       0.00000000       0.00000000       0.00000000
Pd       9.16077813       8.10876919       1.50000000  F       0.00000000       0.00000000       0.00000000
Pd      10.68757448       5.40584612       3.02679635  F       0.00000000       0.00000000       0.00000000
Pd      12.17078421       2.66797181      10.82219120  T       0.00000000       0.00000000       0.00000000
Pd       4.56757311      10.78659176       9.12752103  T       0.00000000       0.00000000       0.00000000
Pd       7.63398212       5.40584800       6.09434442  F       0.00000000       0.00000000       0.00000000
Pd       7.62810389       5.37760061       9.15438562  T       0.00000000       0.00000000       0.00000000
Pd       4.58038906       0.00000000       3.02679635  F       0.00000000       0.00000000       0.00000000
Pd       0.00000000       2.70292306       1.50000000  F       0.00000000       0.00000000       0.00000000
O        5.68098897      -1.69161415      12.37316295  T       0.00000000       0.00000000       0.00000000
C        6.30637356      -0.44914155      12.55400081  T       0.00000000       0.00000000       0.00000000
H        6.07256186      -0.09437780      13.57732041  T       0.00000000       0.00000000       0.00000000
H        7.41258269      -0.49633676      12.43843154  T       0.00000000       0.00000000       0.00000000
H        5.93893738       0.33702875      11.82678029  T       0.00000000       0.00000000       0.00000000
