109
Lattice="12.21437083684855 0.0 7e-16 1.7e-15 10.811692246786171 7e-16 0.0 0.0 29.250333490173453" Properties=species:S:1:pos:R:3:move_mask:L:1:momenta:R:3 adsorbate_info="_JSON {\"site\": {\"coordinates\": [6.6161212128858375, 7.327145038035602e-06, 10.222520184742363], \"connectivity\": 3, \"topology\": [66, 68, 93], \"n_vector\": [0.07714613800653611, 0.01775383833042801, 0.9968617128845974], \"h_vector\": [0.4334017609866856, -0.7672619324677431, -0.4727282946466231], \"site_formula\": {\"Pd\": 3}}, \"smiles\": \"ClOC\", \"mdf\": 2.533431181571318, \"adsorbate_formula\": \"CH3O\"}" mace_E=-558.1133184346251 converged=T n_steps=77 d_min=2.1326277844442636 site_type=unknown dE_rel_meV=0 original_idx=137 rank=1 E_MACE=-558.1244100003859 pbc="T T T"
O        6.08516591       1.32380095       9.15975129  T       0.00000000       0.00000000       0.00000000
O        9.16077813       4.05438459       3.02679635  F       0.00000000       0.00000000       0.00000000
O        6.03972953       6.72600543       9.15718567  T       0.00000000       0.00000000       0.00000000
O        6.08511479       9.46541668       9.15722034  T       0.00000000       0.00000000       0.00000000
O        9.13788857       4.05293523       9.18993744  T       0.00000000       0.00000000       0.00000000
O        3.02874109       1.31996696       9.17902099  T       0.00000000       0.00000000       0.00000000
O        0.00000000       6.75730765       3.02679635  F       0.00000000       0.00000000       0.00000000
O        3.01785993       4.03024016       9.21043222  T       0.00000000       0.00000000       0.00000000
O        0.00000378       9.45637311       6.10263459  F       0.00000000       0.00000000       0.00000000
O        0.00000210       6.76116167       6.10263319  F       0.00000000       0.00000000       0.00000000
O       12.18518773       9.44235323       9.21245594  T       0.00000000       0.00000000       0.00000000
O       12.20149312       1.32293575       9.17689179  T       0.00000000       0.00000000       0.00000000
O       12.19336258       4.03215438       9.21362706  T       0.00000000       0.00000000       0.00000000
O        0.00000083       1.35531789       6.10263389  F       0.00000000       0.00000000       0.00000000
O        0.00000111       4.05052849       6.10263306  F       0.00000000       0.00000000       0.00000000
O        3.05359271       4.05438459       3.02679635  F       0.00000000       0.00000000       0.00000000
O        0.00000000       9.46023072       3.02679635  F       0.00000000       0.00000000       0.00000000
O        3.05359462       4.05052721       6.10264107  F       0.00000000       0.00000000       0.00000000
O        3.05359271       1.35146153       3.02679635  F       0.00000000       0.00000000       0.00000000
O        3.05359530       1.35531781       6.10264061  F       0.00000000       0.00000000       0.00000000
O        0.00000000       4.05438459       3.02679635  F       0.00000000       0.00000000       0.00000000
O        0.00000000       1.35146153       3.02679635  F       0.00000000       0.00000000       0.00000000
O        9.16077813       1.35146153       3.02679635  F       0.00000000       0.00000000       0.00000000
O        9.16077827       4.05052947       6.10263005  F       0.00000000       0.00000000       0.00000000
O       -0.02527745       6.73547390       9.20412136  T       0.00000000       0.00000000       0.00000000
O        9.14403577       1.32638748       9.16372510  T       0.00000000       0.00000000       0.00000000
O        9.16077740       1.35531546       6.10263307  F       0.00000000       0.00000000       0.00000000
O        6.08944930       4.05227127       9.18073221  T       0.00000000       0.00000000       0.00000000
O        6.10718702       1.35531501       6.10263790  F       0.00000000       0.00000000       0.00000000
O        6.10718706       4.05052983       6.10263604  F       0.00000000       0.00000000       0.00000000
O        6.10718542       1.35146153       3.02679635  F       0.00000000       0.00000000       0.00000000
O        6.10718542       4.05438459       3.02679635  F       0.00000000       0.00000000       0.00000000
O        3.04633680       9.43947997       9.21235225  T       0.00000000       0.00000000       0.00000000
O        3.05359386       6.76116323       6.10263934  F       0.00000000       0.00000000       0.00000000
O        3.05359337       9.45637518       6.10263943  F       0.00000000       0.00000000       0.00000000
O        3.05359271       6.75730765       3.02679635  F       0.00000000       0.00000000       0.00000000
O        3.02873595       6.72673285       9.19414355  T       0.00000000       0.00000000       0.00000000
O        6.10718542       9.46023072       3.02679635  F       0.00000000       0.00000000       0.00000000
O        6.10718542       6.75730765       3.02679635  F       0.00000000       0.00000000       0.00000000
O        6.10718315       9.45637324       6.10264060  F       0.00000000       0.00000000       0.00000000
O        6.10718523       6.76116316       6.10264025  F       0.00000000       0.00000000       0.00000000
O        9.17712167       6.74071725       9.18264011  T       0.00000000       0.00000000       0.00000000
O        9.14236342       9.46478755       9.16399531  T       0.00000000       0.00000000       0.00000000
O        9.16078028       6.76116138       6.10263509  F       0.00000000       0.00000000       0.00000000
O        9.16078018       9.45637411       6.10263910  F       0.00000000       0.00000000       0.00000000
O        9.16077813       6.75730765       3.02679635  F       0.00000000       0.00000000       0.00000000
O        3.05359271       9.46023072       3.02679635  F       0.00000000       0.00000000       0.00000000
O        9.16077813       9.46023072       3.02679635  F       0.00000000       0.00000000       0.00000000
Pd       3.05359414       2.70292461       4.56516084  F       0.00000000       0.00000000       0.00000000
Pd       6.10718542       2.70292306       1.50000000  F       0.00000000       0.00000000       0.00000000
Pd       3.05359287       8.10876720       4.56515841  F       0.00000000       0.00000000       0.00000000
Pd       3.08915906       2.65301633      10.83101896  T       0.00000000       0.00000000       0.00000000
Pd       3.03059679       2.69257289       7.66292464  T       0.00000000       0.00000000       0.00000000
Pd       3.05359271       2.70292306       1.50000000  F       0.00000000       0.00000000       0.00000000
Pd       4.58038906       5.40584612       3.02679635  F       0.00000000       0.00000000       0.00000000
Pd       4.58038878       0.00000011       6.09434618  F       0.00000000       0.00000000       0.00000000
Pd       4.58038808       5.40584530       6.09434913  F       0.00000000       0.00000000       0.00000000
Pd       7.63398177       0.00000000       3.02679635  F       0.00000000       0.00000000       0.00000000
Pd       3.05359271       8.10876919       1.50000000  F       0.00000000       0.00000000       0.00000000
Pd       6.07123341       8.11580002       7.66035141  T       0.00000000       0.00000000       0.00000000
Pd       7.63398372      10.81169054       6.09434173  F       0.00000000       0.00000000       0.00000000
Pd       6.10718498       8.10876457       4.56515665  F       0.00000000       0.00000000       0.00000000
Pd       1.52679863       5.40584339       6.09434623  F       0.00000000       0.00000000       0.00000000
Pd       7.63398177       5.40584612       3.02679635  F       0.00000000       0.00000000       0.00000000
Pd       6.10718542       8.10876919       1.50000000  F       0.00000000       0.00000000       0.00000000
Pd      -0.00591606       8.10117767       7.66545263  T       0.00000000       0.00000000       0.00000000
Pd       6.09732701       2.68743826      10.82062187  T       0.00000000       0.00000000       0.00000000
Pd       1.49820037       5.38702218       9.18443766  T       0.00000000       0.00000000       0.00000000
Pd       7.61341255      -0.01455317       9.08371541  T       0.00000000       0.00000000       0.00000000
Pd       6.09680305       2.69751633       7.65478370  T       0.00000000       0.00000000       0.00000000
Pd      11.71823794       8.06883612      10.77539916  T       0.00000000       0.00000000       0.00000000
Pd       6.10718636       2.70292272       4.56515365  F       0.00000000       0.00000000       0.00000000
Pd       3.03683192       8.10033601       7.66334579  T       0.00000000       0.00000000       0.00000000
Pd       0.00000286       8.10876728       4.56515590  F       0.00000000       0.00000000       0.00000000
Pd       4.53774362       5.36846343       9.14369040  T       0.00000000       0.00000000       0.00000000
Pd       9.16077813       2.70292306       1.50000000  F       0.00000000       0.00000000       0.00000000
Pd       3.47896403       8.04829339      10.77418770  T       0.00000000       0.00000000       0.00000000
Pd       0.00000000       8.10876919       1.50000000  F       0.00000000       0.00000000       0.00000000
Pd       8.89171945       7.82980404      10.91022024  T       0.00000000       0.00000000       0.00000000
Pd       1.52679635       0.00000000       3.02679635  F       0.00000000       0.00000000       0.00000000
Pd       1.52679635       5.40584612       3.02679635  F       0.00000000       0.00000000       0.00000000
Pd      10.68757448       0.00000000       3.02679635  F       0.00000000       0.00000000       0.00000000
Pd      10.67807194       5.37804422       9.15836142  T       0.00000000       0.00000000       0.00000000
Pd       9.16077751       2.70292195       4.56515514  F       0.00000000       0.00000000       0.00000000
Pd      10.68757769      10.81169125       6.09434037  F       0.00000000       0.00000000       0.00000000
Pd       9.16077986       8.10876364       4.56515811  F       0.00000000       0.00000000       0.00000000
Pd       1.52679695      10.81169175       6.09434358  F       0.00000000       0.00000000       0.00000000
Pd       9.17523164       8.11396076       7.66398331  T       0.00000000       0.00000000       0.00000000
Pd       9.15302606       2.69898816       7.65711371  T       0.00000000       0.00000000       0.00000000
Pd      10.66819883      -0.01534197       9.12166290  T       0.00000000       0.00000000       0.00000000
Pd       0.00000037       2.70292295       4.56515782  F       0.00000000       0.00000000       0.00000000
Pd       1.50765521      10.77723951       9.16798541  T       0.00000000       0.00000000       0.00000000
Pd       9.09835894       2.68600537      10.82010262  T       0.00000000       0.00000000       0.00000000
Pd       6.31593774       7.75750648      10.90516982  T       0.00000000       0.00000000       0.00000000
Pd      12.21037626       2.69510049       7.66193233  T       0.00000000       0.00000000       0.00000000
Pd      10.68757879       5.40584476       6.09434230  F       0.00000000       0.00000000       0.00000000
Pd       9.16077813       8.10876919       1.50000000  F       0.00000000       0.00000000       0.00000000
Pd      10.68757448       5.40584612       3.02679635  F       0.00000000       0.00000000       0.00000000
Pd      12.15698138       2.65405333      10.82595275  T       0.00000000       0.00000000       0.00000000
Pd       4.56115768      10.79398448       9.12072403  T       0.00000000       0.00000000       0.00000000
Pd       7.63398212       5.40584800       6.09434442  F       0.00000000       0.00000000       0.00000000
Pd       7.61256716       5.38921483       9.13033535  T       0.00000000       0.00000000       0.00000000
Pd       4.58038906       0.00000000       3.02679635  F       0.00000000       0.00000000       0.00000000
Pd       0.00000000       2.70292306       1.50000000  F       0.00000000       0.00000000       0.00000000
O        7.55210639      -2.15870661      12.34550392  T       0.00000000       0.00000000       0.00000000
C        7.44589435      -0.73897694      12.49847209  T       0.00000000       0.00000000       0.00000000
H        8.17122214      -0.40594485      13.26407348  T       0.00000000       0.00000000       0.00000000
H        7.65909313      -0.20671935      11.54320053  T       0.00000000       0.00000000       0.00000000
H        6.42032182      -0.47869293      12.82370932  T       0.00000000       0.00000000       0.00000000
