109
Lattice="12.21437083684855 0.0 7e-16 1.7e-15 10.811692246786171 7e-16 0.0 0.0 29.250333490173453" Properties=species:S:1:pos:R:3:move_mask:L:1:momenta:R:3 adsorbate_info="_JSON {\"site\": {\"coordinates\": [12.214364844799151, 2.702913794375926, 10.777643832345051], \"connectivity\": 1, \"topology\": [98], \"n_vector\": [0.16053662198107163, 0.0017247075984727271, 0.9870283777007661], \"h_vector\": [1.0, 0.0, 0.0], \"site_formula\": {\"Pd\": 1}}, \"smiles\": \"ClOC\", \"mdf\": 1.7097869690905096, \"adsorbate_formula\": \"CH3O\"}" mace_E=-557.8062881265791 converged=T n_steps=72 d_min=1.9618536617802103 site_type=unknown dE_rel_meV=0 original_idx=254 rank=258 E_MACE=-557.7390878115613 pbc="T T T"
O        6.11364406       1.32900175       9.19559484  T       0.00000000       0.00000000       0.00000000
O        9.16077813       4.05438459       3.02679635  F       0.00000000       0.00000000       0.00000000
O        6.12362361       6.73184930       9.18360775  T       0.00000000       0.00000000       0.00000000
O        6.12681754       9.45272020       9.20676925  T       0.00000000       0.00000000       0.00000000
O        9.16426733       4.01936978       9.22418295  T       0.00000000       0.00000000       0.00000000
O        3.07361406       1.31855832       9.16917916  T       0.00000000       0.00000000       0.00000000
O        0.00000000       6.75730765       3.02679635  F       0.00000000       0.00000000       0.00000000
O        3.06209680       4.05012176       9.19398847  T       0.00000000       0.00000000       0.00000000
O        0.00000378       9.45637311       6.10263459  F       0.00000000       0.00000000       0.00000000
O        0.00000210       6.76116167       6.10263319  F       0.00000000       0.00000000       0.00000000
O       12.22834664       9.44982110       9.18414065  T       0.00000000       0.00000000       0.00000000
O       12.24789881       1.32216732       9.12401568  T       0.00000000       0.00000000       0.00000000
O       12.22516101       4.03377605       9.19904621  T       0.00000000       0.00000000       0.00000000
O        0.00000083       1.35531789       6.10263389  F       0.00000000       0.00000000       0.00000000
O        0.00000111       4.05052849       6.10263306  F       0.00000000       0.00000000       0.00000000
O        3.05359271       4.05438459       3.02679635  F       0.00000000       0.00000000       0.00000000
O        0.00000000       9.46023072       3.02679635  F       0.00000000       0.00000000       0.00000000
O        3.05359462       4.05052721       6.10264107  F       0.00000000       0.00000000       0.00000000
O        3.05359271       1.35146153       3.02679635  F       0.00000000       0.00000000       0.00000000
O        3.05359530       1.35531781       6.10264061  F       0.00000000       0.00000000       0.00000000
O        0.00000000       4.05438459       3.02679635  F       0.00000000       0.00000000       0.00000000
O        0.00000000       1.35146153       3.02679635  F       0.00000000       0.00000000       0.00000000
O        9.16077813       1.35146153       3.02679635  F       0.00000000       0.00000000       0.00000000
O        9.16077827       4.05052947       6.10263005  F       0.00000000       0.00000000       0.00000000
O        0.00169743       6.71828414       9.17604991  T       0.00000000       0.00000000       0.00000000
O        9.16968401       1.33496909       9.16596539  T       0.00000000       0.00000000       0.00000000
O        9.16077740       1.35531546       6.10263307  F       0.00000000       0.00000000       0.00000000
O        6.10771608       4.04990118       9.20786966  T       0.00000000       0.00000000       0.00000000
O        6.10718702       1.35531501       6.10263790  F       0.00000000       0.00000000       0.00000000
O        6.10718706       4.05052983       6.10263604  F       0.00000000       0.00000000       0.00000000
O        6.10718542       1.35146153       3.02679635  F       0.00000000       0.00000000       0.00000000
O        6.10718542       4.05438459       3.02679635  F       0.00000000       0.00000000       0.00000000
O        3.07533176       9.44789747       9.19814191  T       0.00000000       0.00000000       0.00000000
O        3.05359386       6.76116323       6.10263934  F       0.00000000       0.00000000       0.00000000
O        3.05359337       9.45637518       6.10263943  F       0.00000000       0.00000000       0.00000000
O        3.05359271       6.75730765       3.02679635  F       0.00000000       0.00000000       0.00000000
O        3.05815144       6.73049466       9.17451587  T       0.00000000       0.00000000       0.00000000
O        6.10718542       9.46023072       3.02679635  F       0.00000000       0.00000000       0.00000000
O        6.10718542       6.75730765       3.02679635  F       0.00000000       0.00000000       0.00000000
O        6.10718315       9.45637324       6.10264060  F       0.00000000       0.00000000       0.00000000
O        6.10718523       6.76116316       6.10264025  F       0.00000000       0.00000000       0.00000000
O        9.17576243       6.71807137       9.17878430  T       0.00000000       0.00000000       0.00000000
O        9.17477854       9.45756294       9.19392175  T       0.00000000       0.00000000       0.00000000
O        9.16078028       6.76116138       6.10263509  F       0.00000000       0.00000000       0.00000000
O        9.16078018       9.45637411       6.10263910  F       0.00000000       0.00000000       0.00000000
O        9.16077813       6.75730765       3.02679635  F       0.00000000       0.00000000       0.00000000
O        3.05359271       9.46023072       3.02679635  F       0.00000000       0.00000000       0.00000000
O        9.16077813       9.46023072       3.02679635  F       0.00000000       0.00000000       0.00000000
Pd       3.05359414       2.70292461       4.56516084  F       0.00000000       0.00000000       0.00000000
Pd       6.10718542       2.70292306       1.50000000  F       0.00000000       0.00000000       0.00000000
Pd       3.05359287       8.10876720       4.56515841  F       0.00000000       0.00000000       0.00000000
Pd       2.92367444       2.62682394      10.82840756  T       0.00000000       0.00000000       0.00000000
Pd       3.07106559       2.70093080       7.65818224  T       0.00000000       0.00000000       0.00000000
Pd       3.05359271       2.70292306       1.50000000  F       0.00000000       0.00000000       0.00000000
Pd       4.58038906       5.40584612       3.02679635  F       0.00000000       0.00000000       0.00000000
Pd       4.58038878       0.00000011       6.09434618  F       0.00000000       0.00000000       0.00000000
Pd       4.58038808       5.40584530       6.09434913  F       0.00000000       0.00000000       0.00000000
Pd       7.63398177       0.00000000       3.02679635  F       0.00000000       0.00000000       0.00000000
Pd       3.05359271       8.10876919       1.50000000  F       0.00000000       0.00000000       0.00000000
Pd       6.11797593       8.10310397       7.66213878  T       0.00000000       0.00000000       0.00000000
Pd       7.63398372      10.81169054       6.09434173  F       0.00000000       0.00000000       0.00000000
Pd       6.10718498       8.10876457       4.56515665  F       0.00000000       0.00000000       0.00000000
Pd       1.52679863       5.40584339       6.09434623  F       0.00000000       0.00000000       0.00000000
Pd       7.63398177       5.40584612       3.02679635  F       0.00000000       0.00000000       0.00000000
Pd       6.10718542       8.10876919       1.50000000  F       0.00000000       0.00000000       0.00000000
Pd      -0.00031870       8.09507478       7.65740989  T       0.00000000       0.00000000       0.00000000
Pd       5.77260089       2.67544666      10.79502071  T       0.00000000       0.00000000       0.00000000
Pd       1.52855076       5.38186135       9.12864804  T       0.00000000       0.00000000       0.00000000
Pd       7.64550904      -0.01098627       9.15642080  T       0.00000000       0.00000000       0.00000000
Pd       6.11403128       2.69863121       7.66259532  T       0.00000000       0.00000000       0.00000000
Pd      12.24204940       8.08619868      10.81441359  T       0.00000000       0.00000000       0.00000000
Pd       6.10718636       2.70292272       4.56515365  F       0.00000000       0.00000000       0.00000000
Pd       3.06209306       8.10094121       7.65741617  T       0.00000000       0.00000000       0.00000000
Pd       0.00000286       8.10876728       4.56515590  F       0.00000000       0.00000000       0.00000000
Pd       4.58952335       5.39384450       9.14722273  T       0.00000000       0.00000000       0.00000000
Pd       9.16077813       2.70292306       1.50000000  F       0.00000000       0.00000000       0.00000000
Pd       3.09364898       8.07928143      10.82532352  T       0.00000000       0.00000000       0.00000000
Pd       0.00000000       8.10876919       1.50000000  F       0.00000000       0.00000000       0.00000000
Pd       9.21741237       8.08382415      10.81311317  T       0.00000000       0.00000000       0.00000000
Pd       1.52679635       0.00000000       3.02679635  F       0.00000000       0.00000000       0.00000000
Pd       1.52679635       5.40584612       3.02679635  F       0.00000000       0.00000000       0.00000000
Pd      10.68757448       0.00000000       3.02679635  F       0.00000000       0.00000000       0.00000000
Pd      10.69560376       5.36509441       9.14074056  T       0.00000000       0.00000000       0.00000000
Pd       9.16077751       2.70292195       4.56515514  F       0.00000000       0.00000000       0.00000000
Pd      10.68757769      10.81169125       6.09434037  F       0.00000000       0.00000000       0.00000000
Pd       9.16077986       8.10876364       4.56515811  F       0.00000000       0.00000000       0.00000000
Pd       1.52679695      10.81169175       6.09434358  F       0.00000000       0.00000000       0.00000000
Pd       9.16377829       8.09887255       7.66093979  T       0.00000000       0.00000000       0.00000000
Pd       9.15536192       2.70685377       7.66327332  T       0.00000000       0.00000000       0.00000000
Pd      10.70126401      -0.02151845       9.11614185  T       0.00000000       0.00000000       0.00000000
Pd       0.00000037       2.70292295       4.56515782  F       0.00000000       0.00000000       0.00000000
Pd       1.55206826      10.77963960       9.12385627  T       0.00000000       0.00000000       0.00000000
Pd       9.51784628       2.51618292      10.85884457  T       0.00000000       0.00000000       0.00000000
Pd       6.14027383       8.07229846      10.83108447  T       0.00000000       0.00000000       0.00000000
Pd      12.22963910       2.71784659       7.65523932  T       0.00000000       0.00000000       0.00000000
Pd      10.68757879       5.40584476       6.09434230  F       0.00000000       0.00000000       0.00000000
Pd       9.16077813       8.10876919       1.50000000  F       0.00000000       0.00000000       0.00000000
Pd      10.68757448       5.40584612       3.02679635  F       0.00000000       0.00000000       0.00000000
Pd      12.19927128       2.29550239      10.90162831  T       0.00000000       0.00000000       0.00000000
Pd       4.60134177      10.79113150       9.15653811  T       0.00000000       0.00000000       0.00000000
Pd       7.63398212       5.40584800       6.09434442  F       0.00000000       0.00000000       0.00000000
Pd       7.64776386       5.37616413       9.15967505  T       0.00000000       0.00000000       0.00000000
Pd       4.58038906       0.00000000       3.02679635  F       0.00000000       0.00000000       0.00000000
Pd       0.00000000       2.70292306       1.50000000  F       0.00000000       0.00000000       0.00000000
O       11.95833167       3.20684111      12.65606590  T       0.00000000       0.00000000       0.00000000
C       10.65108579       3.09947480      13.09355489  T       0.00000000       0.00000000       0.00000000
H       10.45935542       3.80709281      13.92834119  T       0.00000000       0.00000000       0.00000000
H        9.83897292       3.53451904      12.32872507  T       0.00000000       0.00000000       0.00000000
H       10.33616382       2.08143685      13.41860330  T       0.00000000       0.00000000       0.00000000
