109
Lattice="12.21437083684855 0.0 7e-16 1.7e-15 10.811692246786171 7e-16 0.0 0.0 29.250333490173453" Properties=species:S:1:pos:R:3:move_mask:L:1:momenta:R:3 adsorbate_info="_JSON {\"site\": {\"coordinates\": [5.801825716652214, 4.6692177024181575e-06, 9.794319835117713], \"connectivity\": 5, \"topology\": [0, 3, 66, 93, 99], \"n_vector\": [-0.0434217113469699, 0.013513325445178229, 0.9989654373496178], \"h_vector\": [-0.7530995412234558, -0.6576148483983517, -0.019590614462886954], \"site_formula\": {\"O\": 2, \"Pd\": 3}}, \"smiles\": \"ClOC\", \"mdf\": 2.117083055067075, \"adsorbate_formula\": \"CH3O\"}" mace_E=-557.8514561560934 converged=T n_steps=44 d_min=1.962958153490937 site_type=unknown dE_rel_meV=0 original_idx=125 rank=259 E_MACE=-557.6796878203533 pbc="T T T"
O        6.09456030       1.33731849       9.13285907  T       0.00000000       0.00000000       0.00000000
O        9.16077813       4.05438459       3.02679635  F       0.00000000       0.00000000       0.00000000
O        6.09252231       6.78935473       9.23245221  T       0.00000000       0.00000000       0.00000000
O        6.09435363       9.46809009       9.16604447  T       0.00000000       0.00000000       0.00000000
O        9.13190281       4.07469498       9.19044820  T       0.00000000       0.00000000       0.00000000
O        3.03541833       1.34891199       9.17218352  T       0.00000000       0.00000000       0.00000000
O        0.00000000       6.75730765       3.02679635  F       0.00000000       0.00000000       0.00000000
O        3.04319763       4.07769915       9.18433766  T       0.00000000       0.00000000       0.00000000
O        0.00000378       9.45637311       6.10263459  F       0.00000000       0.00000000       0.00000000
O        0.00000210       6.76116167       6.10263319  F       0.00000000       0.00000000       0.00000000
O       12.20418888       9.47492653       9.18137624  T       0.00000000       0.00000000       0.00000000
O       12.20104261       1.34816586       9.18294541  T       0.00000000       0.00000000       0.00000000
O       12.19582277       4.07486691       9.17900311  T       0.00000000       0.00000000       0.00000000
O        0.00000083       1.35531789       6.10263389  F       0.00000000       0.00000000       0.00000000
O        0.00000111       4.05052849       6.10263306  F       0.00000000       0.00000000       0.00000000
O        3.05359271       4.05438459       3.02679635  F       0.00000000       0.00000000       0.00000000
O        0.00000000       9.46023072       3.02679635  F       0.00000000       0.00000000       0.00000000
O        3.05359462       4.05052721       6.10264107  F       0.00000000       0.00000000       0.00000000
O        3.05359271       1.35146153       3.02679635  F       0.00000000       0.00000000       0.00000000
O        3.05359530       1.35531781       6.10264061  F       0.00000000       0.00000000       0.00000000
O        0.00000000       4.05438459       3.02679635  F       0.00000000       0.00000000       0.00000000
O        0.00000000       1.35146153       3.02679635  F       0.00000000       0.00000000       0.00000000
O        9.16077813       1.35146153       3.02679635  F       0.00000000       0.00000000       0.00000000
O        9.16077827       4.05052947       6.10263005  F       0.00000000       0.00000000       0.00000000
O       -0.01718624       6.75615663       9.19414046  T       0.00000000       0.00000000       0.00000000
O        9.15373710       1.35056321       9.18607141  T       0.00000000       0.00000000       0.00000000
O        9.16077740       1.35531546       6.10263307  F       0.00000000       0.00000000       0.00000000
O        6.08314741       4.05631705       9.23589749  T       0.00000000       0.00000000       0.00000000
O        6.10718702       1.35531501       6.10263790  F       0.00000000       0.00000000       0.00000000
O        6.10718706       4.05052983       6.10263604  F       0.00000000       0.00000000       0.00000000
O        6.10718542       1.35146153       3.02679635  F       0.00000000       0.00000000       0.00000000
O        6.10718542       4.05438459       3.02679635  F       0.00000000       0.00000000       0.00000000
O        3.03296833       9.47631694       9.17175564  T       0.00000000       0.00000000       0.00000000
O        3.05359386       6.76116323       6.10263934  F       0.00000000       0.00000000       0.00000000
O        3.05359337       9.45637518       6.10263943  F       0.00000000       0.00000000       0.00000000
O        3.05359271       6.75730765       3.02679635  F       0.00000000       0.00000000       0.00000000
O        3.02589341       6.76073006       9.19549115  T       0.00000000       0.00000000       0.00000000
O        6.10718542       9.46023072       3.02679635  F       0.00000000       0.00000000       0.00000000
O        6.10718542       6.75730765       3.02679635  F       0.00000000       0.00000000       0.00000000
O        6.10718315       9.45637324       6.10264060  F       0.00000000       0.00000000       0.00000000
O        6.10718523       6.76116316       6.10264025  F       0.00000000       0.00000000       0.00000000
O        9.14429785       6.75457470       9.19541071  T       0.00000000       0.00000000       0.00000000
O        9.15776143       9.47168630       9.18416020  T       0.00000000       0.00000000       0.00000000
O        9.16078028       6.76116138       6.10263509  F       0.00000000       0.00000000       0.00000000
O        9.16078018       9.45637411       6.10263910  F       0.00000000       0.00000000       0.00000000
O        9.16077813       6.75730765       3.02679635  F       0.00000000       0.00000000       0.00000000
O        3.05359271       9.46023072       3.02679635  F       0.00000000       0.00000000       0.00000000
O        9.16077813       9.46023072       3.02679635  F       0.00000000       0.00000000       0.00000000
Pd       3.05359414       2.70292461       4.56516084  F       0.00000000       0.00000000       0.00000000
Pd       6.10718542       2.70292306       1.50000000  F       0.00000000       0.00000000       0.00000000
Pd       3.05359287       8.10876720       4.56515841  F       0.00000000       0.00000000       0.00000000
Pd       3.04109205       2.71222767      10.81964553  T       0.00000000       0.00000000       0.00000000
Pd       3.04521388       2.71173756       7.65509936  T       0.00000000       0.00000000       0.00000000
Pd       3.05359271       2.70292306       1.50000000  F       0.00000000       0.00000000       0.00000000
Pd       4.58038906       5.40584612       3.02679635  F       0.00000000       0.00000000       0.00000000
Pd       4.58038878       0.00000011       6.09434618  F       0.00000000       0.00000000       0.00000000
Pd       4.58038808       5.40584530       6.09434913  F       0.00000000       0.00000000       0.00000000
Pd       7.63398177       0.00000000       3.02679635  F       0.00000000       0.00000000       0.00000000
Pd       3.05359271       8.10876919       1.50000000  F       0.00000000       0.00000000       0.00000000
Pd       6.10365644       8.10612416       7.65817737  T       0.00000000       0.00000000       0.00000000
Pd       7.63398372      10.81169054       6.09434173  F       0.00000000       0.00000000       0.00000000
Pd       6.10718498       8.10876457       4.56515665  F       0.00000000       0.00000000       0.00000000
Pd       1.52679863       5.40584339       6.09434623  F       0.00000000       0.00000000       0.00000000
Pd       7.63398177       5.40584612       3.02679635  F       0.00000000       0.00000000       0.00000000
Pd       6.10718542       8.10876919       1.50000000  F       0.00000000       0.00000000       0.00000000
Pd      -0.00798897       8.10983128       7.65793352  T       0.00000000       0.00000000       0.00000000
Pd       6.00133675       2.56916017      10.84521438  T       0.00000000       0.00000000       0.00000000
Pd       1.50794519       5.41458713       9.15393283  T       0.00000000       0.00000000       0.00000000
Pd       7.62948420       0.00171837       9.11738072  T       0.00000000       0.00000000       0.00000000
Pd       6.09845936       2.72166849       7.66100032  T       0.00000000       0.00000000       0.00000000
Pd      12.23750955       8.12657996      10.83018524  T       0.00000000       0.00000000       0.00000000
Pd       6.10718636       2.70292272       4.56515365  F       0.00000000       0.00000000       0.00000000
Pd       3.03761982       8.10953721       7.65619182  T       0.00000000       0.00000000       0.00000000
Pd       0.00000286       8.10876728       4.56515590  F       0.00000000       0.00000000       0.00000000
Pd       4.56712686       5.42020325       9.17169339  T       0.00000000       0.00000000       0.00000000
Pd       9.16077813       2.70292306       1.50000000  F       0.00000000       0.00000000       0.00000000
Pd       3.07709281       8.09973312      10.82919463  T       0.00000000       0.00000000       0.00000000
Pd       0.00000000       8.10876919       1.50000000  F       0.00000000       0.00000000       0.00000000
Pd       9.27596310       8.11457561      10.81778442  T       0.00000000       0.00000000       0.00000000
Pd       1.52679635       0.00000000       3.02679635  F       0.00000000       0.00000000       0.00000000
Pd       1.52679635       5.40584612       3.02679635  F       0.00000000       0.00000000       0.00000000
Pd      10.68757448       0.00000000       3.02679635  F       0.00000000       0.00000000       0.00000000
Pd      10.66568513       5.41375476       9.15549667  T       0.00000000       0.00000000       0.00000000
Pd       9.16077751       2.70292195       4.56515514  F       0.00000000       0.00000000       0.00000000
Pd      10.68757769      10.81169125       6.09434037  F       0.00000000       0.00000000       0.00000000
Pd       9.16077986       8.10876364       4.56515811  F       0.00000000       0.00000000       0.00000000
Pd       1.52679695      10.81169175       6.09434358  F       0.00000000       0.00000000       0.00000000
Pd       9.15625154       8.10790453       7.65751354  T       0.00000000       0.00000000       0.00000000
Pd       9.15253288       2.70991642       7.65957181  T       0.00000000       0.00000000       0.00000000
Pd      10.67751472       0.00387468       9.14552490  T       0.00000000       0.00000000       0.00000000
Pd       0.00000037       2.70292295       4.56515782  F       0.00000000       0.00000000       0.00000000
Pd       1.51110368      10.81787663       9.13552252  T       0.00000000       0.00000000       0.00000000
Pd       9.19511245       2.71259603      10.82159045  T       0.00000000       0.00000000       0.00000000
Pd       5.94369932       8.12482651      10.79988743  T       0.00000000       0.00000000       0.00000000
Pd      12.20488092       2.70613213       7.65477482  T       0.00000000       0.00000000       0.00000000
Pd      10.68757879       5.40584476       6.09434230  F       0.00000000       0.00000000       0.00000000
Pd       9.16077813       8.10876919       1.50000000  F       0.00000000       0.00000000       0.00000000
Pd      10.68757448       5.40584612       3.02679635  F       0.00000000       0.00000000       0.00000000
Pd      12.20826429       2.73251903      10.81403744  T       0.00000000       0.00000000       0.00000000
Pd       4.55941103      10.81592848       9.10491112  T       0.00000000       0.00000000       0.00000000
Pd       7.63398212       5.40584800       6.09434442  F       0.00000000       0.00000000       0.00000000
Pd       7.60758645       5.41623894       9.17752485  T       0.00000000       0.00000000       0.00000000
Pd       4.58038906       0.00000000       3.02679635  F       0.00000000       0.00000000       0.00000000
Pd       0.00000000       2.70292306       1.50000000  F       0.00000000       0.00000000       0.00000000
O        5.58974247      -1.43662404      12.28036067  T       0.00000000       0.00000000       0.00000000
C        6.23046676      -0.21025008      12.44394747  T       0.00000000       0.00000000       0.00000000
H        6.11144287       0.11146718      13.49692443  T       0.00000000       0.00000000       0.00000000
H        7.31267360      -0.21627790      12.18447617  T       0.00000000       0.00000000       0.00000000
H        5.76626140       0.62367416      11.79734817  T       0.00000000       0.00000000       0.00000000
