109
Lattice="12.21437083684855 0.0 7e-16 1.7e-15 10.811692246786171 7e-16 0.0 0.0 29.250333490173453" Properties=species:S:1:pos:R:3:move_mask:L:1:momenta:R:3 adsorbate_info="_JSON {\"site\": {\"coordinates\": [9.924174105407985, 1.3514669852552574, 9.944955532317932], \"connectivity\": 2, \"topology\": [89, 92], \"n_vector\": [0.11508515547833748, -0.4561696219971555, 0.8824197883975058], \"h_vector\": [-0.4333998855794997, 0.7672632433928993, 0.4727278863340783], \"site_formula\": {\"Pd\": 2}}, \"smiles\": \"ClOC\", \"mdf\": 2.308817732215196, \"adsorbate_formula\": \"CH3O\"}" mace_E=-557.8550081114138 converged=T n_steps=56 d_min=1.8585915971234892 site_type=unknown dE_rel_meV=0 original_idx=206 rank=256 E_MACE=-557.8070843537342 pbc="T T T"
O        6.12018447       1.35316732       9.20271345  T       0.00000000       0.00000000       0.00000000
O        9.16077813       4.05438459       3.02679635  F       0.00000000       0.00000000       0.00000000
O        6.12172859       6.75910171       9.20014796  T       0.00000000       0.00000000       0.00000000
O        6.12329662       9.47667011       9.17828937  T       0.00000000       0.00000000       0.00000000
O        9.15331772       4.04721501       9.19363977  T       0.00000000       0.00000000       0.00000000
O        3.06707406       1.34855120       9.19776033  T       0.00000000       0.00000000       0.00000000
O        0.00000000       6.75730765       3.02679635  F       0.00000000       0.00000000       0.00000000
O        3.06601379       4.06654222       9.19342639  T       0.00000000       0.00000000       0.00000000
O        0.00000378       9.45637311       6.10263459  F       0.00000000       0.00000000       0.00000000
O        0.00000210       6.76116167       6.10263319  F       0.00000000       0.00000000       0.00000000
O       12.23145128       9.47374624       9.17173482  T       0.00000000       0.00000000       0.00000000
O       12.24525947       1.34077829       9.18105317  T       0.00000000       0.00000000       0.00000000
O       12.24752948       4.05113399       9.20980003  T       0.00000000       0.00000000       0.00000000
O        0.00000083       1.35531789       6.10263389  F       0.00000000       0.00000000       0.00000000
O        0.00000111       4.05052849       6.10263306  F       0.00000000       0.00000000       0.00000000
O        3.05359271       4.05438459       3.02679635  F       0.00000000       0.00000000       0.00000000
O        0.00000000       9.46023072       3.02679635  F       0.00000000       0.00000000       0.00000000
O        3.05359462       4.05052721       6.10264107  F       0.00000000       0.00000000       0.00000000
O        3.05359271       1.35146153       3.02679635  F       0.00000000       0.00000000       0.00000000
O        3.05359530       1.35531781       6.10264061  F       0.00000000       0.00000000       0.00000000
O        0.00000000       4.05438459       3.02679635  F       0.00000000       0.00000000       0.00000000
O        0.00000000       1.35146153       3.02679635  F       0.00000000       0.00000000       0.00000000
O        9.16077813       1.35146153       3.02679635  F       0.00000000       0.00000000       0.00000000
O        9.16077827       4.05052947       6.10263005  F       0.00000000       0.00000000       0.00000000
O        0.00974930       6.74159998       9.19354928  T       0.00000000       0.00000000       0.00000000
O        9.17516929       1.35788077       9.18375529  T       0.00000000       0.00000000       0.00000000
O        9.16077740       1.35531546       6.10263307  F       0.00000000       0.00000000       0.00000000
O        6.11674237       4.07492825       9.19297654  T       0.00000000       0.00000000       0.00000000
O        6.10718702       1.35531501       6.10263790  F       0.00000000       0.00000000       0.00000000
O        6.10718706       4.05052983       6.10263604  F       0.00000000       0.00000000       0.00000000
O        6.10718542       1.35146153       3.02679635  F       0.00000000       0.00000000       0.00000000
O        6.10718542       4.05438459       3.02679635  F       0.00000000       0.00000000       0.00000000
O        3.07803928       9.47207169       9.18068259  T       0.00000000       0.00000000       0.00000000
O        3.05359386       6.76116323       6.10263934  F       0.00000000       0.00000000       0.00000000
O        3.05359337       9.45637518       6.10263943  F       0.00000000       0.00000000       0.00000000
O        3.05359271       6.75730765       3.02679635  F       0.00000000       0.00000000       0.00000000
O        3.06632453       6.75855680       9.19301665  T       0.00000000       0.00000000       0.00000000
O        6.10718542       9.46023072       3.02679635  F       0.00000000       0.00000000       0.00000000
O        6.10718542       6.75730765       3.02679635  F       0.00000000       0.00000000       0.00000000
O        6.10718315       9.45637324       6.10264060  F       0.00000000       0.00000000       0.00000000
O        6.10718523       6.76116316       6.10264025  F       0.00000000       0.00000000       0.00000000
O        9.18278681       6.75824527       9.20908714  T       0.00000000       0.00000000       0.00000000
O        9.17828316       9.48456531       9.15530898  T       0.00000000       0.00000000       0.00000000
O        9.16078028       6.76116138       6.10263509  F       0.00000000       0.00000000       0.00000000
O        9.16078018       9.45637411       6.10263910  F       0.00000000       0.00000000       0.00000000
O        9.16077813       6.75730765       3.02679635  F       0.00000000       0.00000000       0.00000000
O        3.05359271       9.46023072       3.02679635  F       0.00000000       0.00000000       0.00000000
O        9.16077813       9.46023072       3.02679635  F       0.00000000       0.00000000       0.00000000
Pd       3.05359414       2.70292461       4.56516084  F       0.00000000       0.00000000       0.00000000
Pd       6.10718542       2.70292306       1.50000000  F       0.00000000       0.00000000       0.00000000
Pd       3.05359287       8.10876720       4.56515841  F       0.00000000       0.00000000       0.00000000
Pd       2.95777358       2.71824359      10.83447202  T       0.00000000       0.00000000       0.00000000
Pd       3.06412526       2.70469644       7.66175984  T       0.00000000       0.00000000       0.00000000
Pd       3.05359271       2.70292306       1.50000000  F       0.00000000       0.00000000       0.00000000
Pd       4.58038906       5.40584612       3.02679635  F       0.00000000       0.00000000       0.00000000
Pd       4.58038878       0.00000011       6.09434618  F       0.00000000       0.00000000       0.00000000
Pd       4.58038808       5.40584530       6.09434913  F       0.00000000       0.00000000       0.00000000
Pd       7.63398177       0.00000000       3.02679635  F       0.00000000       0.00000000       0.00000000
Pd       3.05359271       8.10876919       1.50000000  F       0.00000000       0.00000000       0.00000000
Pd       6.11440227       8.10878915       7.65928916  T       0.00000000       0.00000000       0.00000000
Pd       7.63398372      10.81169054       6.09434173  F       0.00000000       0.00000000       0.00000000
Pd       6.10718498       8.10876457       4.56515665  F       0.00000000       0.00000000       0.00000000
Pd       1.52679863       5.40584339       6.09434623  F       0.00000000       0.00000000       0.00000000
Pd       7.63398177       5.40584612       3.02679635  F       0.00000000       0.00000000       0.00000000
Pd       6.10718542       8.10876919       1.50000000  F       0.00000000       0.00000000       0.00000000
Pd       0.00736469       8.10234790       7.65756245  T       0.00000000       0.00000000       0.00000000
Pd       5.91836643       2.72459094      10.81108480  T       0.00000000       0.00000000       0.00000000
Pd       1.54375902       5.40994347       9.16466770  T       0.00000000       0.00000000       0.00000000
Pd       7.64727534       0.01186163       9.14211806  T       0.00000000       0.00000000       0.00000000
Pd       6.11371949       2.70765670       7.66197877  T       0.00000000       0.00000000       0.00000000
Pd      12.25315739       8.12111267      10.81901735  T       0.00000000       0.00000000       0.00000000
Pd       6.10718636       2.70292272       4.56515365  F       0.00000000       0.00000000       0.00000000
Pd       3.06301811       8.10938637       7.65556210  T       0.00000000       0.00000000       0.00000000
Pd       0.00000286       8.10876728       4.56515590  F       0.00000000       0.00000000       0.00000000
Pd       4.59280798       5.41645216       9.16061918  T       0.00000000       0.00000000       0.00000000
Pd       9.16077813       2.70292306       1.50000000  F       0.00000000       0.00000000       0.00000000
Pd       3.08931138       8.12596489      10.82349603  T       0.00000000       0.00000000       0.00000000
Pd       0.00000000       8.10876919       1.50000000  F       0.00000000       0.00000000       0.00000000
Pd       9.26726501       8.18434897      10.83046990  T       0.00000000       0.00000000       0.00000000
Pd       1.52679635       0.00000000       3.02679635  F       0.00000000       0.00000000       0.00000000
Pd       1.52679635       5.40584612       3.02679635  F       0.00000000       0.00000000       0.00000000
Pd      10.68757448       0.00000000       3.02679635  F       0.00000000       0.00000000       0.00000000
Pd      10.70014012       5.39821328       9.16151836  T       0.00000000       0.00000000       0.00000000
Pd       9.16077751       2.70292195       4.56515514  F       0.00000000       0.00000000       0.00000000
Pd      10.68757769      10.81169125       6.09434037  F       0.00000000       0.00000000       0.00000000
Pd       9.16077986       8.10876364       4.56515811  F       0.00000000       0.00000000       0.00000000
Pd       1.52679695      10.81169175       6.09434358  F       0.00000000       0.00000000       0.00000000
Pd       9.16784752       8.10409120       7.66031810  T       0.00000000       0.00000000       0.00000000
Pd       9.15349355       2.70359234       7.65353642  T       0.00000000       0.00000000       0.00000000
Pd      10.71092330       0.00764152       9.11691681  T       0.00000000       0.00000000       0.00000000
Pd       0.00000037       2.70292295       4.56515782  F       0.00000000       0.00000000       0.00000000
Pd       1.54957889      10.81014079       9.14111562  T       0.00000000       0.00000000       0.00000000
Pd       9.38681503       2.77877183      10.79582163  T       0.00000000       0.00000000       0.00000000
Pd       6.12190647       8.13870474      10.82674237  T       0.00000000       0.00000000       0.00000000
Pd      12.23874214       2.70428127       7.66356079  T       0.00000000       0.00000000       0.00000000
Pd      10.68757879       5.40584476       6.09434230  F       0.00000000       0.00000000       0.00000000
Pd       9.16077813       8.10876919       1.50000000  F       0.00000000       0.00000000       0.00000000
Pd      10.68757448       5.40584612       3.02679635  F       0.00000000       0.00000000       0.00000000
Pd      12.14088430       2.71435188      10.84896193  T       0.00000000       0.00000000       0.00000000
Pd       4.59862136      10.82028153       9.15652659  T       0.00000000       0.00000000       0.00000000
Pd       7.63398212       5.40584800       6.09434442  F       0.00000000       0.00000000       0.00000000
Pd       7.64593512       5.41689738       9.16235094  T       0.00000000       0.00000000       0.00000000
Pd       4.58038906       0.00000000       3.02679635  F       0.00000000       0.00000000       0.00000000
Pd       0.00000000       2.70292306       1.50000000  F       0.00000000       0.00000000       0.00000000
O       10.01445888       1.63658803      12.28575372  T       0.00000000       0.00000000       0.00000000
C        9.48028709       0.36544009      12.56614341  T       0.00000000       0.00000000       0.00000000
H       10.01159288      -0.04301933      13.44931663  T       0.00000000       0.00000000       0.00000000
H        8.39093980       0.39610075      12.78649948  T       0.00000000       0.00000000       0.00000000
H        9.62287030      -0.36998226      11.72061192  T       0.00000000       0.00000000       0.00000000
