109
Lattice="12.21437083684855 0.0 7e-16 1.7e-15 10.811692246786171 7e-16 0.0 0.0 29.250333490173453" Properties=species:S:1:pos:R:3:move_mask:L:1:momenta:R:3 adsorbate_info="_JSON {\"site\": {\"coordinates\": [3.0535750262241064, 2.7029040305950724, 10.777653323713889], \"connectivity\": 1, \"topology\": [51], \"n_vector\": [-0.10290574509717354, 0.001921797269310167, 0.9946892551552224], \"h_vector\": [1.0, 0.0, 0.0], \"site_formula\": {\"Pd\": 1}}, \"smiles\": \"ClOC\", \"mdf\": 1.70978696909051, \"adsorbate_formula\": \"CH3O\"}" mace_E=-557.6575900678371 converged=T n_steps=39 d_min=3.21314367484065 site_type=unknown dE_rel_meV=0 original_idx=60 rank=4 E_MACE=-558.1213241482855 pbc="T T T"
O        6.11822817       1.37551886       9.21863313  T       0.00000000       0.00000000       0.00000000
O        9.16077813       4.05438459       3.02679635  F       0.00000000       0.00000000       0.00000000
O        6.12664039       6.77258642       9.20869169  T       0.00000000       0.00000000       0.00000000
O        6.12314812       9.49933365       9.17171904  T       0.00000000       0.00000000       0.00000000
O        9.18000908       4.09068522       9.18195956  T       0.00000000       0.00000000       0.00000000
O        3.07096165       1.36901569       9.19359211  T       0.00000000       0.00000000       0.00000000
O        0.00000000       6.75730765       3.02679635  F       0.00000000       0.00000000       0.00000000
O        3.07549516       4.07679729       9.14742594  T       0.00000000       0.00000000       0.00000000
O        0.00000378       9.45637311       6.10263459  F       0.00000000       0.00000000       0.00000000
O        0.00000210       6.76116167       6.10263319  F       0.00000000       0.00000000       0.00000000
O       12.22931697       9.49788056       9.17399090  T       0.00000000       0.00000000       0.00000000
O       12.23907529       1.37449760       9.21470670  T       0.00000000       0.00000000       0.00000000
O       12.22397224       4.09236403       9.17197412  T       0.00000000       0.00000000       0.00000000
O        0.00000083       1.35531789       6.10263389  F       0.00000000       0.00000000       0.00000000
O        0.00000111       4.05052849       6.10263306  F       0.00000000       0.00000000       0.00000000
O        3.05359271       4.05438459       3.02679635  F       0.00000000       0.00000000       0.00000000
O        0.00000000       9.46023072       3.02679635  F       0.00000000       0.00000000       0.00000000
O        3.05359462       4.05052721       6.10264107  F       0.00000000       0.00000000       0.00000000
O        3.05359271       1.35146153       3.02679635  F       0.00000000       0.00000000       0.00000000
O        3.05359530       1.35531781       6.10264061  F       0.00000000       0.00000000       0.00000000
O        0.00000000       4.05438459       3.02679635  F       0.00000000       0.00000000       0.00000000
O        0.00000000       1.35146153       3.02679635  F       0.00000000       0.00000000       0.00000000
O        9.16077813       1.35146153       3.02679635  F       0.00000000       0.00000000       0.00000000
O        9.16077827       4.05052947       6.10263005  F       0.00000000       0.00000000       0.00000000
O        0.02063136       6.77479479       9.20756375  T       0.00000000       0.00000000       0.00000000
O        9.17659969       1.37438714       9.21828949  T       0.00000000       0.00000000       0.00000000
O        9.16077740       1.35531546       6.10263307  F       0.00000000       0.00000000       0.00000000
O        6.13726729       4.08692841       9.17521603  T       0.00000000       0.00000000       0.00000000
O        6.10718702       1.35531501       6.10263790  F       0.00000000       0.00000000       0.00000000
O        6.10718706       4.05052983       6.10263604  F       0.00000000       0.00000000       0.00000000
O        6.10718542       1.35146153       3.02679635  F       0.00000000       0.00000000       0.00000000
O        6.10718542       4.05438459       3.02679635  F       0.00000000       0.00000000       0.00000000
O        3.07015173       9.49527321       9.16339490  T       0.00000000       0.00000000       0.00000000
O        3.05359386       6.76116323       6.10263934  F       0.00000000       0.00000000       0.00000000
O        3.05359337       9.45637518       6.10263943  F       0.00000000       0.00000000       0.00000000
O        3.05359271       6.75730765       3.02679635  F       0.00000000       0.00000000       0.00000000
O        3.07598860       6.76711661       9.19967259  T       0.00000000       0.00000000       0.00000000
O        6.10718542       9.46023072       3.02679635  F       0.00000000       0.00000000       0.00000000
O        6.10718542       6.75730765       3.02679635  F       0.00000000       0.00000000       0.00000000
O        6.10718315       9.45637324       6.10264060  F       0.00000000       0.00000000       0.00000000
O        6.10718523       6.76116316       6.10264025  F       0.00000000       0.00000000       0.00000000
O        9.17576593       6.78055696       9.20690050  T       0.00000000       0.00000000       0.00000000
O        9.17662244       9.50343156       9.17338441  T       0.00000000       0.00000000       0.00000000
O        9.16078028       6.76116138       6.10263509  F       0.00000000       0.00000000       0.00000000
O        9.16078018       9.45637411       6.10263910  F       0.00000000       0.00000000       0.00000000
O        9.16077813       6.75730765       3.02679635  F       0.00000000       0.00000000       0.00000000
O        3.05359271       9.46023072       3.02679635  F       0.00000000       0.00000000       0.00000000
O        9.16077813       9.46023072       3.02679635  F       0.00000000       0.00000000       0.00000000
Pd       3.05359414       2.70292461       4.56516084  F       0.00000000       0.00000000       0.00000000
Pd       6.10718542       2.70292306       1.50000000  F       0.00000000       0.00000000       0.00000000
Pd       3.05359287       8.10876720       4.56515841  F       0.00000000       0.00000000       0.00000000
Pd       3.05384291       3.06677518      10.90753407  T       0.00000000       0.00000000       0.00000000
Pd       3.06373492       2.68951548       7.65857140  T       0.00000000       0.00000000       0.00000000
Pd       3.05359271       2.70292306       1.50000000  F       0.00000000       0.00000000       0.00000000
Pd       4.58038906       5.40584612       3.02679635  F       0.00000000       0.00000000       0.00000000
Pd       4.58038878       0.00000011       6.09434618  F       0.00000000       0.00000000       0.00000000
Pd       4.58038808       5.40584530       6.09434913  F       0.00000000       0.00000000       0.00000000
Pd       7.63398177       0.00000000       3.02679635  F       0.00000000       0.00000000       0.00000000
Pd       3.05359271       8.10876919       1.50000000  F       0.00000000       0.00000000       0.00000000
Pd       6.11895105       8.11755391       7.66055333  T       0.00000000       0.00000000       0.00000000
Pd       7.63398372      10.81169054       6.09434173  F       0.00000000       0.00000000       0.00000000
Pd       6.10718498       8.10876457       4.56515665  F       0.00000000       0.00000000       0.00000000
Pd       1.52679863       5.40584339       6.09434623  F       0.00000000       0.00000000       0.00000000
Pd       7.63398177       5.40584612       3.02679635  F       0.00000000       0.00000000       0.00000000
Pd       6.10718542       8.10876919       1.50000000  F       0.00000000       0.00000000       0.00000000
Pd       0.00686089       8.11769250       7.66057099  T       0.00000000       0.00000000       0.00000000
Pd       5.92738227       2.81244061      10.83339587  T       0.00000000       0.00000000       0.00000000
Pd       1.54402707       5.43478629       9.14259466  T       0.00000000       0.00000000       0.00000000
Pd       7.64820096       0.03431481       9.15656721  T       0.00000000       0.00000000       0.00000000
Pd       6.12643433       2.70660142       7.66360412  T       0.00000000       0.00000000       0.00000000
Pd      12.24490651       8.15894852      10.82470146  T       0.00000000       0.00000000       0.00000000
Pd       6.10718636       2.70292272       4.56515365  F       0.00000000       0.00000000       0.00000000
Pd       3.06425258       8.11330772       7.65639142  T       0.00000000       0.00000000       0.00000000
Pd       0.00000286       8.10876728       4.56515590  F       0.00000000       0.00000000       0.00000000
Pd       4.60726964       5.43092183       9.14501831  T       0.00000000       0.00000000       0.00000000
Pd       9.16077813       2.70292306       1.50000000  F       0.00000000       0.00000000       0.00000000
Pd       3.07270012       8.15860614      10.81170925  T       0.00000000       0.00000000       0.00000000
Pd       0.00000000       8.10876919       1.50000000  F       0.00000000       0.00000000       0.00000000
Pd       9.17545678       8.16592632      10.82316980  T       0.00000000       0.00000000       0.00000000
Pd       1.52679635       0.00000000       3.02679635  F       0.00000000       0.00000000       0.00000000
Pd       1.52679635       5.40584612       3.02679635  F       0.00000000       0.00000000       0.00000000
Pd      10.68757448       0.00000000       3.02679635  F       0.00000000       0.00000000       0.00000000
Pd      10.70289223       5.43522244       9.16319329  T       0.00000000       0.00000000       0.00000000
Pd       9.16077751       2.70292195       4.56515514  F       0.00000000       0.00000000       0.00000000
Pd      10.68757769      10.81169125       6.09434037  F       0.00000000       0.00000000       0.00000000
Pd       9.16077986       8.10876364       4.56515811  F       0.00000000       0.00000000       0.00000000
Pd       1.52679695      10.81169175       6.09434358  F       0.00000000       0.00000000       0.00000000
Pd       9.16779017       8.12087097       7.65971040  T       0.00000000       0.00000000       0.00000000
Pd       9.17082391       2.71060739       7.66130722  T       0.00000000       0.00000000       0.00000000
Pd      10.70744744       0.03546786       9.15790170  T       0.00000000       0.00000000       0.00000000
Pd       0.00000037       2.70292295       4.56515782  F       0.00000000       0.00000000       0.00000000
Pd       1.54831817      10.84257894       9.13317210  T       0.00000000       0.00000000       0.00000000
Pd       9.14914385       2.76751284      10.81952470  T       0.00000000       0.00000000       0.00000000
Pd       6.10449225       8.16436045      10.82228251  T       0.00000000       0.00000000       0.00000000
Pd      12.21456891       2.70814732       7.66373747  T       0.00000000       0.00000000       0.00000000
Pd      10.68757879       5.40584476       6.09434230  F       0.00000000       0.00000000       0.00000000
Pd       9.16077813       8.10876919       1.50000000  F       0.00000000       0.00000000       0.00000000
Pd      10.68757448       5.40584612       3.02679635  F       0.00000000       0.00000000       0.00000000
Pd      12.50931763       2.81072453      10.82121969  T       0.00000000       0.00000000       0.00000000
Pd       4.59290156      10.84528453       9.13204965  T       0.00000000       0.00000000       0.00000000
Pd       7.63398212       5.40584800       6.09434442  F       0.00000000       0.00000000       0.00000000
Pd       7.65712338       5.43247386       9.16488662  T       0.00000000       0.00000000       0.00000000
Pd       4.58038906       0.00000000       3.02679635  F       0.00000000       0.00000000       0.00000000
Pd       0.00000000       2.70292306       1.50000000  F       0.00000000       0.00000000       0.00000000
O        3.05160428       2.07037247      12.60581638  T       0.00000000       0.00000000       0.00000000
C        2.45292863       2.79068424      13.67104524  T       0.00000000       0.00000000       0.00000000
H        2.70867278       2.28110342      14.62347815  T       0.00000000       0.00000000       0.00000000
H        2.79657876       3.84563285      13.75951067  T       0.00000000       0.00000000       0.00000000
H        1.33514189       2.81062127      13.59569461  T       0.00000000       0.00000000       0.00000000
