109
Lattice="12.21437083684855 0.0 7e-16 1.7e-15 10.811692246786171 7e-16 0.0 0.0 29.250333490173453" Properties=species:S:1:pos:R:3:move_mask:L:1:momenta:R:3 adsorbate_info="_JSON {\"site\": {\"coordinates\": [3.816978406827125, 1.351451906665033, 9.944974213559304], \"connectivity\": 2, \"topology\": [51, 99], \"n_vector\": [0.02250820267739634, -0.454675723766417, 0.8903726001117274], \"h_vector\": [-0.43340492264551206, 0.7672562345327079, 0.47273464395718695], \"site_formula\": {\"Pd\": 2}}, \"smiles\": \"ClOC\", \"mdf\": 2.225429888932777, \"adsorbate_formula\": \"CH3O\"}" mace_E=-557.8502602206258 converged=T n_steps=80 d_min=2.553617627177479 site_type=unknown dE_rel_meV=0 original_idx=76 rank=0 E_MACE=-558.1287233468558 pbc="T T T"
O        6.10916429       1.32410445       9.16175676  T       0.00000000       0.00000000       0.00000000
O        9.16077813       4.05438459       3.02679635  F       0.00000000       0.00000000       0.00000000
O        6.10226985       6.71635831       9.16478332  T       0.00000000       0.00000000       0.00000000
O        6.11114652       9.44566255       9.18397191  T       0.00000000       0.00000000       0.00000000
O        9.16293489       4.05004967       9.19322458  T       0.00000000       0.00000000       0.00000000
O        3.05575171       1.31121421       9.13907134  T       0.00000000       0.00000000       0.00000000
O        0.00000000       6.75730765       3.02679635  F       0.00000000       0.00000000       0.00000000
O        3.04569638       4.02487012       9.25651074  T       0.00000000       0.00000000       0.00000000
O        0.00000378       9.45637311       6.10263459  F       0.00000000       0.00000000       0.00000000
O        0.00000210       6.76116167       6.10263319  F       0.00000000       0.00000000       0.00000000
O       12.20249277       9.45126867       9.19535170  T       0.00000000       0.00000000       0.00000000
O       12.20538003       1.32454993       9.16812595  T       0.00000000       0.00000000       0.00000000
O       12.22055496       4.04789157       9.21020646  T       0.00000000       0.00000000       0.00000000
O        0.00000083       1.35531789       6.10263389  F       0.00000000       0.00000000       0.00000000
O        0.00000111       4.05052849       6.10263306  F       0.00000000       0.00000000       0.00000000
O        3.05359271       4.05438459       3.02679635  F       0.00000000       0.00000000       0.00000000
O        0.00000000       9.46023072       3.02679635  F       0.00000000       0.00000000       0.00000000
O        3.05359462       4.05052721       6.10264107  F       0.00000000       0.00000000       0.00000000
O        3.05359271       1.35146153       3.02679635  F       0.00000000       0.00000000       0.00000000
O        3.05359530       1.35531781       6.10264061  F       0.00000000       0.00000000       0.00000000
O        0.00000000       4.05438459       3.02679635  F       0.00000000       0.00000000       0.00000000
O        0.00000000       1.35146153       3.02679635  F       0.00000000       0.00000000       0.00000000
O        9.16077813       1.35146153       3.02679635  F       0.00000000       0.00000000       0.00000000
O        9.16077827       4.05052947       6.10263005  F       0.00000000       0.00000000       0.00000000
O       -0.00183647       6.73177679       9.18596347  T       0.00000000       0.00000000       0.00000000
O        9.15675240       1.32266149       9.17825617  T       0.00000000       0.00000000       0.00000000
O        9.16077740       1.35531546       6.10263307  F       0.00000000       0.00000000       0.00000000
O        6.09551628       4.04259594       9.20489486  T       0.00000000       0.00000000       0.00000000
O        6.10718702       1.35531501       6.10263790  F       0.00000000       0.00000000       0.00000000
O        6.10718706       4.05052983       6.10263604  F       0.00000000       0.00000000       0.00000000
O        6.10718542       1.35146153       3.02679635  F       0.00000000       0.00000000       0.00000000
O        6.10718542       4.05438459       3.02679635  F       0.00000000       0.00000000       0.00000000
O        3.04923036       9.44296462       9.17759869  T       0.00000000       0.00000000       0.00000000
O        3.05359386       6.76116323       6.10263934  F       0.00000000       0.00000000       0.00000000
O        3.05359337       9.45637518       6.10263943  F       0.00000000       0.00000000       0.00000000
O        3.05359271       6.75730765       3.02679635  F       0.00000000       0.00000000       0.00000000
O        3.05756688       6.75753422       9.21959011  T       0.00000000       0.00000000       0.00000000
O        6.10718542       9.46023072       3.02679635  F       0.00000000       0.00000000       0.00000000
O        6.10718542       6.75730765       3.02679635  F       0.00000000       0.00000000       0.00000000
O        6.10718315       9.45637324       6.10264060  F       0.00000000       0.00000000       0.00000000
O        6.10718523       6.76116316       6.10264025  F       0.00000000       0.00000000       0.00000000
O        9.15590458       6.72779059       9.17354253  T       0.00000000       0.00000000       0.00000000
O        9.15580074       9.44926246       9.20652431  T       0.00000000       0.00000000       0.00000000
O        9.16078028       6.76116138       6.10263509  F       0.00000000       0.00000000       0.00000000
O        9.16078018       9.45637411       6.10263910  F       0.00000000       0.00000000       0.00000000
O        9.16077813       6.75730765       3.02679635  F       0.00000000       0.00000000       0.00000000
O        3.05359271       9.46023072       3.02679635  F       0.00000000       0.00000000       0.00000000
O        9.16077813       9.46023072       3.02679635  F       0.00000000       0.00000000       0.00000000
Pd       3.05359414       2.70292461       4.56516084  F       0.00000000       0.00000000       0.00000000
Pd       6.10718542       2.70292306       1.50000000  F       0.00000000       0.00000000       0.00000000
Pd       3.05359287       8.10876720       4.56515841  F       0.00000000       0.00000000       0.00000000
Pd       3.06782001       2.52953590      10.86139582  T       0.00000000       0.00000000       0.00000000
Pd       3.04650166       2.70700417       7.66963598  T       0.00000000       0.00000000       0.00000000
Pd       3.05359271       2.70292306       1.50000000  F       0.00000000       0.00000000       0.00000000
Pd       4.58038906       5.40584612       3.02679635  F       0.00000000       0.00000000       0.00000000
Pd       4.58038878       0.00000011       6.09434618  F       0.00000000       0.00000000       0.00000000
Pd       4.58038808       5.40584530       6.09434913  F       0.00000000       0.00000000       0.00000000
Pd       7.63398177       0.00000000       3.02679635  F       0.00000000       0.00000000       0.00000000
Pd       3.05359271       8.10876919       1.50000000  F       0.00000000       0.00000000       0.00000000
Pd       6.11185598       8.09778371       7.65487791  T       0.00000000       0.00000000       0.00000000
Pd       7.63398372      10.81169054       6.09434173  F       0.00000000       0.00000000       0.00000000
Pd       6.10718498       8.10876457       4.56515665  F       0.00000000       0.00000000       0.00000000
Pd       1.52679863       5.40584339       6.09434623  F       0.00000000       0.00000000       0.00000000
Pd       7.63398177       5.40584612       3.02679635  F       0.00000000       0.00000000       0.00000000
Pd       6.10718542       8.10876919       1.50000000  F       0.00000000       0.00000000       0.00000000
Pd      -0.00246357       8.10090429       7.65748955  T       0.00000000       0.00000000       0.00000000
Pd       6.15725732       2.65376092      10.82482555  T       0.00000000       0.00000000       0.00000000
Pd       1.53051071       5.38778443       9.18400276  T       0.00000000       0.00000000       0.00000000
Pd       7.63240685      -0.01983315       9.14477485  T       0.00000000       0.00000000       0.00000000
Pd       6.10485551       2.70251623       7.65725152  T       0.00000000       0.00000000       0.00000000
Pd      12.17010380       8.08041354      10.82071498  T       0.00000000       0.00000000       0.00000000
Pd       6.10718636       2.70292272       4.56515365  F       0.00000000       0.00000000       0.00000000
Pd       3.05068289       8.09886339       7.65920334  T       0.00000000       0.00000000       0.00000000
Pd       0.00000286       8.10876728       4.56515590  F       0.00000000       0.00000000       0.00000000
Pd       4.56852857       5.37762975       9.16990841  T       0.00000000       0.00000000       0.00000000
Pd       9.16077813       2.70292306       1.50000000  F       0.00000000       0.00000000       0.00000000
Pd       3.11366563       8.07697006      10.80873919  T       0.00000000       0.00000000       0.00000000
Pd       0.00000000       8.10876919       1.50000000  F       0.00000000       0.00000000       0.00000000
Pd       9.08954974       8.06520124      10.82768242  T       0.00000000       0.00000000       0.00000000
Pd       1.52679635       0.00000000       3.02679635  F       0.00000000       0.00000000       0.00000000
Pd       1.52679635       5.40584612       3.02679635  F       0.00000000       0.00000000       0.00000000
Pd      10.68757448       0.00000000       3.02679635  F       0.00000000       0.00000000       0.00000000
Pd      10.68901811       5.39108090       9.15443107  T       0.00000000       0.00000000       0.00000000
Pd       9.16077751       2.70292195       4.56515514  F       0.00000000       0.00000000       0.00000000
Pd      10.68757769      10.81169125       6.09434037  F       0.00000000       0.00000000       0.00000000
Pd       9.16077986       8.10876364       4.56515811  F       0.00000000       0.00000000       0.00000000
Pd       1.52679695      10.81169175       6.09434358  F       0.00000000       0.00000000       0.00000000
Pd       9.16070538       8.10431577       7.65854903  T       0.00000000       0.00000000       0.00000000
Pd       9.16125475       2.69768217       7.65669022  T       0.00000000       0.00000000       0.00000000
Pd      10.67960760      -0.02140439       9.15673821  T       0.00000000       0.00000000       0.00000000
Pd       0.00000037       2.70292295       4.56515782  F       0.00000000       0.00000000       0.00000000
Pd       1.51701434      10.79113158       9.13173637  T       0.00000000       0.00000000       0.00000000
Pd       9.15163974       2.67543645      10.81996193  T       0.00000000       0.00000000       0.00000000
Pd       6.02866060       8.04961697      10.82179051  T       0.00000000       0.00000000       0.00000000
Pd      12.21521733       2.70215228       7.65871987  T       0.00000000       0.00000000       0.00000000
Pd      10.68757879       5.40584476       6.09434230  F       0.00000000       0.00000000       0.00000000
Pd       9.16077813       8.10876919       1.50000000  F       0.00000000       0.00000000       0.00000000
Pd      10.68757448       5.40584612       3.02679635  F       0.00000000       0.00000000       0.00000000
Pd      12.22147233       2.64675800      10.82185666  T       0.00000000       0.00000000       0.00000000
Pd       4.58647163      10.78713399       9.09899903  T       0.00000000       0.00000000       0.00000000
Pd       7.63398212       5.40584800       6.09434442  F       0.00000000       0.00000000       0.00000000
Pd       7.62970599       5.38333869       9.14299232  T       0.00000000       0.00000000       0.00000000
Pd       4.58038906       0.00000000       3.02679635  F       0.00000000       0.00000000       0.00000000
Pd       0.00000000       2.70292306       1.50000000  F       0.00000000       0.00000000       0.00000000
O        3.04931014      -1.50114582      12.33684550  T       0.00000000       0.00000000       0.00000000
C        3.71873530      -0.28018626      12.39465436  T       0.00000000       0.00000000       0.00000000
H        3.87909898      -0.00631386      13.45650557  T       0.00000000       0.00000000       0.00000000
H        4.69961283      -0.27366379      11.86275765  T       0.00000000       0.00000000       0.00000000
H        3.11641952       0.57346836      11.91619829  T       0.00000000       0.00000000       0.00000000
