109
Lattice="12.21437083684855 0.0 7e-16 1.7e-15 10.811692246786171 7e-16 0.0 0.0 29.250333490173453" Properties=species:S:1:pos:R:3:move_mask:L:1:momenta:R:3 adsorbate_info="_JSON {\"site\": {\"coordinates\": [0.5089284548715074, 5.405842314636835, 10.222526513449468], \"connectivity\": 3, \"topology\": [67, 70, 98], \"n_vector\": [0.11068938742642767, -0.006529483876869401, 0.9938336004339277], \"h_vector\": [0.43340290223305405, 0.7672605889446454, -0.47272942894247827], \"site_formula\": {\"Pd\": 3}}, \"smiles\": \"ClOC\", \"mdf\": 2.643081531241373, \"adsorbate_formula\": \"CH3O\"}" mace_E=-557.8539630437606 converged=T n_steps=54 d_min=2.0679978385589672 site_type=unknown dE_rel_meV=0 original_idx=5 rank=3 E_MACE=-558.1213751483243 pbc="T T T"
O        6.12220890       1.33504629       9.19185371  T       0.00000000       0.00000000       0.00000000
O        9.16077813       4.05438459       3.02679635  F       0.00000000       0.00000000       0.00000000
O        6.12520924       6.74560617       9.17992193  T       0.00000000       0.00000000       0.00000000
O        6.12320094       9.46267533       9.19192630  T       0.00000000       0.00000000       0.00000000
O        9.16525785       4.04966618       9.20090207  T       0.00000000       0.00000000       0.00000000
O        3.08471135       1.34871674       9.20621102  T       0.00000000       0.00000000       0.00000000
O        0.00000000       6.75730765       3.02679635  F       0.00000000       0.00000000       0.00000000
O        3.08048404       4.05923921       9.18599554  T       0.00000000       0.00000000       0.00000000
O        0.00000378       9.45637311       6.10263459  F       0.00000000       0.00000000       0.00000000
O        0.00000210       6.76116167       6.10263319  F       0.00000000       0.00000000       0.00000000
O       12.23630664       9.45497629       9.21640847  T       0.00000000       0.00000000       0.00000000
O       12.21588592       1.35727068       9.20101424  T       0.00000000       0.00000000       0.00000000
O       12.22802154       4.03583300       9.19857209  T       0.00000000       0.00000000       0.00000000
O        0.00000083       1.35531789       6.10263389  F       0.00000000       0.00000000       0.00000000
O        0.00000111       4.05052849       6.10263306  F       0.00000000       0.00000000       0.00000000
O        3.05359271       4.05438459       3.02679635  F       0.00000000       0.00000000       0.00000000
O        0.00000000       9.46023072       3.02679635  F       0.00000000       0.00000000       0.00000000
O        3.05359462       4.05052721       6.10264107  F       0.00000000       0.00000000       0.00000000
O        3.05359271       1.35146153       3.02679635  F       0.00000000       0.00000000       0.00000000
O        3.05359530       1.35531781       6.10264061  F       0.00000000       0.00000000       0.00000000
O        0.00000000       4.05438459       3.02679635  F       0.00000000       0.00000000       0.00000000
O        0.00000000       1.35146153       3.02679635  F       0.00000000       0.00000000       0.00000000
O        9.16077813       1.35146153       3.02679635  F       0.00000000       0.00000000       0.00000000
O        9.16077827       4.05052947       6.10263005  F       0.00000000       0.00000000       0.00000000
O        0.01453168       6.72651280       9.15593896  T       0.00000000       0.00000000       0.00000000
O        9.17521942       1.33440696       9.19777028  T       0.00000000       0.00000000       0.00000000
O        9.16077740       1.35531546       6.10263307  F       0.00000000       0.00000000       0.00000000
O        6.11686900       4.05739662       9.19233100  T       0.00000000       0.00000000       0.00000000
O        6.10718702       1.35531501       6.10263790  F       0.00000000       0.00000000       0.00000000
O        6.10718706       4.05052983       6.10263604  F       0.00000000       0.00000000       0.00000000
O        6.10718542       1.35146153       3.02679635  F       0.00000000       0.00000000       0.00000000
O        6.10718542       4.05438459       3.02679635  F       0.00000000       0.00000000       0.00000000
O        3.06323217       9.47147262       9.19438513  T       0.00000000       0.00000000       0.00000000
O        3.05359386       6.76116323       6.10263934  F       0.00000000       0.00000000       0.00000000
O        3.05359337       9.45637518       6.10263943  F       0.00000000       0.00000000       0.00000000
O        3.05359271       6.75730765       3.02679635  F       0.00000000       0.00000000       0.00000000
O        3.06485588       6.73829578       9.16699317  T       0.00000000       0.00000000       0.00000000
O        6.10718542       9.46023072       3.02679635  F       0.00000000       0.00000000       0.00000000
O        6.10718542       6.75730765       3.02679635  F       0.00000000       0.00000000       0.00000000
O        6.10718315       9.45637324       6.10264060  F       0.00000000       0.00000000       0.00000000
O        6.10718523       6.76116316       6.10264025  F       0.00000000       0.00000000       0.00000000
O        9.17710170       6.73741399       9.17583989  T       0.00000000       0.00000000       0.00000000
O        9.18212113       9.45830786       9.19983664  T       0.00000000       0.00000000       0.00000000
O        9.16078028       6.76116138       6.10263509  F       0.00000000       0.00000000       0.00000000
O        9.16078018       9.45637411       6.10263910  F       0.00000000       0.00000000       0.00000000
O        9.16077813       6.75730765       3.02679635  F       0.00000000       0.00000000       0.00000000
O        3.05359271       9.46023072       3.02679635  F       0.00000000       0.00000000       0.00000000
O        9.16077813       9.46023072       3.02679635  F       0.00000000       0.00000000       0.00000000
Pd       3.05359414       2.70292461       4.56516084  F       0.00000000       0.00000000       0.00000000
Pd       6.10718542       2.70292306       1.50000000  F       0.00000000       0.00000000       0.00000000
Pd       3.05359287       8.10876720       4.56515841  F       0.00000000       0.00000000       0.00000000
Pd       3.00466329       2.66317930      10.85434793  T       0.00000000       0.00000000       0.00000000
Pd       3.07742998       2.70219234       7.66431453  T       0.00000000       0.00000000       0.00000000
Pd       3.05359271       2.70292306       1.50000000  F       0.00000000       0.00000000       0.00000000
Pd       4.58038906       5.40584612       3.02679635  F       0.00000000       0.00000000       0.00000000
Pd       4.58038878       0.00000011       6.09434618  F       0.00000000       0.00000000       0.00000000
Pd       4.58038808       5.40584530       6.09434913  F       0.00000000       0.00000000       0.00000000
Pd       7.63398177       0.00000000       3.02679635  F       0.00000000       0.00000000       0.00000000
Pd       3.05359271       8.10876919       1.50000000  F       0.00000000       0.00000000       0.00000000
Pd       6.11755461       8.10897109       7.65547343  T       0.00000000       0.00000000       0.00000000
Pd       7.63398372      10.81169054       6.09434173  F       0.00000000       0.00000000       0.00000000
Pd       6.10718498       8.10876457       4.56515665  F       0.00000000       0.00000000       0.00000000
Pd       1.52679863       5.40584339       6.09434623  F       0.00000000       0.00000000       0.00000000
Pd       7.63398177       5.40584612       3.02679635  F       0.00000000       0.00000000       0.00000000
Pd       6.10718542       8.10876919       1.50000000  F       0.00000000       0.00000000       0.00000000
Pd       0.00541993       8.11079209       7.66305622  T       0.00000000       0.00000000       0.00000000
Pd       6.02122588       2.68300674      10.83417875  T       0.00000000       0.00000000       0.00000000
Pd       1.54471845       5.39037632       9.12086390  T       0.00000000       0.00000000       0.00000000
Pd       7.65292395      -0.00952708       9.16249481  T       0.00000000       0.00000000       0.00000000
Pd       6.11752687       2.69887439       7.66091548  T       0.00000000       0.00000000       0.00000000
Pd      12.29730819       8.01492768      10.83952054  T       0.00000000       0.00000000       0.00000000
Pd       6.10718636       2.70292272       4.56515365  F       0.00000000       0.00000000       0.00000000
Pd       3.06127606       8.11213022       7.65691858  T       0.00000000       0.00000000       0.00000000
Pd       0.00000286       8.10876728       4.56515590  F       0.00000000       0.00000000       0.00000000
Pd       4.59771582       5.40444369       9.13716333  T       0.00000000       0.00000000       0.00000000
Pd       9.16077813       2.70292306       1.50000000  F       0.00000000       0.00000000       0.00000000
Pd       3.05953876       8.08602385      10.81722987  T       0.00000000       0.00000000       0.00000000
Pd       0.00000000       8.10876919       1.50000000  F       0.00000000       0.00000000       0.00000000
Pd       9.18893663       8.08041555      10.82221395  T       0.00000000       0.00000000       0.00000000
Pd       1.52679635       0.00000000       3.02679635  F       0.00000000       0.00000000       0.00000000
Pd       1.52679635       5.40584612       3.02679635  F       0.00000000       0.00000000       0.00000000
Pd      10.68757448       0.00000000       3.02679635  F       0.00000000       0.00000000       0.00000000
Pd      10.69861548       5.38458782       9.14121921  T       0.00000000       0.00000000       0.00000000
Pd       9.16077751       2.70292195       4.56515514  F       0.00000000       0.00000000       0.00000000
Pd      10.68757769      10.81169125       6.09434037  F       0.00000000       0.00000000       0.00000000
Pd       9.16077986       8.10876364       4.56515811  F       0.00000000       0.00000000       0.00000000
Pd       1.52679695      10.81169175       6.09434358  F       0.00000000       0.00000000       0.00000000
Pd       9.16964897       8.10802008       7.65848024  T       0.00000000       0.00000000       0.00000000
Pd       9.16420414       2.69737008       7.66198535  T       0.00000000       0.00000000       0.00000000
Pd      10.70418822      -0.00972400       9.16870679  T       0.00000000       0.00000000       0.00000000
Pd       0.00000037       2.70292295       4.56515782  F       0.00000000       0.00000000       0.00000000
Pd       1.54009439      10.81384988       9.16566230  T       0.00000000       0.00000000       0.00000000
Pd       8.95798475       2.67864144      10.81532778  T       0.00000000       0.00000000       0.00000000
Pd       6.13124561       8.09590849      10.81857518  T       0.00000000       0.00000000       0.00000000
Pd      12.21007135       2.70218700       7.65714008  T       0.00000000       0.00000000       0.00000000
Pd      10.68757879       5.40584476       6.09434230  F       0.00000000       0.00000000       0.00000000
Pd       9.16077813       8.10876919       1.50000000  F       0.00000000       0.00000000       0.00000000
Pd      10.68757448       5.40584612       3.02679635  F       0.00000000       0.00000000       0.00000000
Pd      12.44556338       2.61204209      10.80692190  T       0.00000000       0.00000000       0.00000000
Pd       4.59772822      10.80536783       9.16203973  T       0.00000000       0.00000000       0.00000000
Pd       7.63398212       5.40584800       6.09434442  F       0.00000000       0.00000000       0.00000000
Pd       7.64794956       5.39783316       9.14850531  T       0.00000000       0.00000000       0.00000000
Pd       4.58038906       0.00000000       3.02679635  F       0.00000000       0.00000000       0.00000000
Pd       0.00000000       2.70292306       1.50000000  F       0.00000000       0.00000000       0.00000000
O        0.77762047       3.73936188      12.33014244  T       0.00000000       0.00000000       0.00000000
C        0.20363522       4.99587914      12.59370804  T       0.00000000       0.00000000       0.00000000
H        0.64810091       5.38912181      13.52996140  T       0.00000000       0.00000000       0.00000000
H        0.40823054       5.75717795      11.78295077  T       0.00000000       0.00000000       0.00000000
H       -0.89978923       4.94312030      12.71663596  T       0.00000000       0.00000000       0.00000000
