109
Lattice="12.21437083684855 0.0 7e-16 1.7e-15 10.811692246786171 7e-16 0.0 0.0 29.250333490173453" Properties=species:S:1:pos:R:3:move_mask:L:1:momenta:R:3 adsorbate_info="_JSON {\"site\": {\"coordinates\": [3.0535783616160135, 10.811682979970396, 10.777647484128495], \"connectivity\": 2, \"topology\": [51, 76], \"n_vector\": [-0.028590496027026735, -0.02465178525498636, 0.9992871824559098], \"h_vector\": [1.233998851809804e-06, -0.9999999999969047, -2.160478251840186e-06], \"site_formula\": {\"Pd\": 2}}, \"smiles\": \"ClOC\", \"mdf\": 2.6623526914531004, \"adsorbate_formula\": \"CH3O\"}" mace_E=-558.0639353811075 converged=T n_steps=86 d_min=1.97620985290382 site_type=unknown dE_rel_meV=0 original_idx=66 rank=130 E_MACE=-557.8606480143962 pbc="T T T"
O        6.14424763       1.32123910       9.18439872  T       0.00000000       0.00000000       0.00000000
O        9.16077813       4.05438459       3.02679635  F       0.00000000       0.00000000       0.00000000
O        6.14949096       6.72124456       9.17638036  T       0.00000000       0.00000000       0.00000000
O        6.13241839       9.44754983       9.20486853  T       0.00000000       0.00000000       0.00000000
O        9.20137621       4.04234123       9.20928505  T       0.00000000       0.00000000       0.00000000
O        3.08319813       1.32196056       9.16715013  T       0.00000000       0.00000000       0.00000000
O        0.00000000       6.75730765       3.02679635  F       0.00000000       0.00000000       0.00000000
O        3.08505069       4.04987045       9.18847930  T       0.00000000       0.00000000       0.00000000
O        0.00000378       9.45637311       6.10263459  F       0.00000000       0.00000000       0.00000000
O        0.00000210       6.76116167       6.10263319  F       0.00000000       0.00000000       0.00000000
O       12.24993758       9.43608505       9.21445200  T       0.00000000       0.00000000       0.00000000
O       12.25138356       1.32289209       9.17371504  T       0.00000000       0.00000000       0.00000000
O       12.25720917       4.06128838       9.20123705  T       0.00000000       0.00000000       0.00000000
O        0.00000083       1.35531789       6.10263389  F       0.00000000       0.00000000       0.00000000
O        0.00000111       4.05052849       6.10263306  F       0.00000000       0.00000000       0.00000000
O        3.05359271       4.05438459       3.02679635  F       0.00000000       0.00000000       0.00000000
O        0.00000000       9.46023072       3.02679635  F       0.00000000       0.00000000       0.00000000
O        3.05359462       4.05052721       6.10264107  F       0.00000000       0.00000000       0.00000000
O        3.05359271       1.35146153       3.02679635  F       0.00000000       0.00000000       0.00000000
O        3.05359530       1.35531781       6.10264061  F       0.00000000       0.00000000       0.00000000
O        0.00000000       4.05438459       3.02679635  F       0.00000000       0.00000000       0.00000000
O        0.00000000       1.35146153       3.02679635  F       0.00000000       0.00000000       0.00000000
O        9.16077813       1.35146153       3.02679635  F       0.00000000       0.00000000       0.00000000
O        9.16077827       4.05052947       6.10263005  F       0.00000000       0.00000000       0.00000000
O        0.00631520       6.75904887       9.19766644  T       0.00000000       0.00000000       0.00000000
O        9.19813313       1.32143248       9.17659143  T       0.00000000       0.00000000       0.00000000
O        9.16077740       1.35531546       6.10263307  F       0.00000000       0.00000000       0.00000000
O        6.16383663       4.02799636       9.21140680  T       0.00000000       0.00000000       0.00000000
O        6.10718702       1.35531501       6.10263790  F       0.00000000       0.00000000       0.00000000
O        6.10718706       4.05052983       6.10263604  F       0.00000000       0.00000000       0.00000000
O        6.10718542       1.35146153       3.02679635  F       0.00000000       0.00000000       0.00000000
O        6.10718542       4.05438459       3.02679635  F       0.00000000       0.00000000       0.00000000
O        3.09345824       9.45253686       9.17799165  T       0.00000000       0.00000000       0.00000000
O        3.05359386       6.76116323       6.10263934  F       0.00000000       0.00000000       0.00000000
O        3.05359337       9.45637518       6.10263943  F       0.00000000       0.00000000       0.00000000
O        3.05359271       6.75730765       3.02679635  F       0.00000000       0.00000000       0.00000000
O        3.15316597       6.72786415       9.16173740  T       0.00000000       0.00000000       0.00000000
O        6.10718542       9.46023072       3.02679635  F       0.00000000       0.00000000       0.00000000
O        6.10718542       6.75730765       3.02679635  F       0.00000000       0.00000000       0.00000000
O        6.10718315       9.45637324       6.10264060  F       0.00000000       0.00000000       0.00000000
O        6.10718523       6.76116316       6.10264025  F       0.00000000       0.00000000       0.00000000
O        9.18991970       6.73822419       9.19757207  T       0.00000000       0.00000000       0.00000000
O        9.19618854       9.44645051       9.20947722  T       0.00000000       0.00000000       0.00000000
O        9.16078028       6.76116138       6.10263509  F       0.00000000       0.00000000       0.00000000
O        9.16078018       9.45637411       6.10263910  F       0.00000000       0.00000000       0.00000000
O        9.16077813       6.75730765       3.02679635  F       0.00000000       0.00000000       0.00000000
O        3.05359271       9.46023072       3.02679635  F       0.00000000       0.00000000       0.00000000
O        9.16077813       9.46023072       3.02679635  F       0.00000000       0.00000000       0.00000000
Pd       3.05359414       2.70292461       4.56516084  F       0.00000000       0.00000000       0.00000000
Pd       6.10718542       2.70292306       1.50000000  F       0.00000000       0.00000000       0.00000000
Pd       3.05359287       8.10876720       4.56515841  F       0.00000000       0.00000000       0.00000000
Pd       3.08620918       2.68701806      10.82284698  T       0.00000000       0.00000000       0.00000000
Pd       3.06691554       2.69741322       7.65904618  T       0.00000000       0.00000000       0.00000000
Pd       3.05359271       2.70292306       1.50000000  F       0.00000000       0.00000000       0.00000000
Pd       4.58038906       5.40584612       3.02679635  F       0.00000000       0.00000000       0.00000000
Pd       4.58038878       0.00000011       6.09434618  F       0.00000000       0.00000000       0.00000000
Pd       4.58038808       5.40584530       6.09434913  F       0.00000000       0.00000000       0.00000000
Pd       7.63398177       0.00000000       3.02679635  F       0.00000000       0.00000000       0.00000000
Pd       3.05359271       8.10876919       1.50000000  F       0.00000000       0.00000000       0.00000000
Pd       6.13163155       8.10384712       7.66055080  T       0.00000000       0.00000000       0.00000000
Pd       7.63398372      10.81169054       6.09434173  F       0.00000000       0.00000000       0.00000000
Pd       6.10718498       8.10876457       4.56515665  F       0.00000000       0.00000000       0.00000000
Pd       1.52679863       5.40584339       6.09434623  F       0.00000000       0.00000000       0.00000000
Pd       7.63398177       5.40584612       3.02679635  F       0.00000000       0.00000000       0.00000000
Pd       6.10718542       8.10876919       1.50000000  F       0.00000000       0.00000000       0.00000000
Pd      -0.00340119       8.11228650       7.66647542  T       0.00000000       0.00000000       0.00000000
Pd       6.12784044       2.65832937      10.83718400  T       0.00000000       0.00000000       0.00000000
Pd       1.56851427       5.40217336       9.15291413  T       0.00000000       0.00000000       0.00000000
Pd       7.66952073      -0.02571329       9.15908950  T       0.00000000       0.00000000       0.00000000
Pd       6.13557106       2.69039004       7.66457251  T       0.00000000       0.00000000       0.00000000
Pd      12.58526116       7.93893731      10.83641423  T       0.00000000       0.00000000       0.00000000
Pd       6.10718636       2.70292272       4.56515365  F       0.00000000       0.00000000       0.00000000
Pd       3.09657606       8.11292446       7.66104657  T       0.00000000       0.00000000       0.00000000
Pd       0.00000286       8.10876728       4.56515590  F       0.00000000       0.00000000       0.00000000
Pd       4.64099989       5.36333069       9.14686125  T       0.00000000       0.00000000       0.00000000
Pd       9.16077813       2.70292306       1.50000000  F       0.00000000       0.00000000       0.00000000
Pd       2.93751569       7.80596352      10.87411092  T       0.00000000       0.00000000       0.00000000
Pd       0.00000000       8.10876919       1.50000000  F       0.00000000       0.00000000       0.00000000
Pd       9.12300702       8.08174918      10.82343393  T       0.00000000       0.00000000       0.00000000
Pd       1.52679635       0.00000000       3.02679635  F       0.00000000       0.00000000       0.00000000
Pd       1.52679635       5.40584612       3.02679635  F       0.00000000       0.00000000       0.00000000
Pd      10.68757448       0.00000000       3.02679635  F       0.00000000       0.00000000       0.00000000
Pd      10.71842161       5.39583205       9.17231205  T       0.00000000       0.00000000       0.00000000
Pd       9.16077751       2.70292195       4.56515514  F       0.00000000       0.00000000       0.00000000
Pd      10.68757769      10.81169125       6.09434037  F       0.00000000       0.00000000       0.00000000
Pd       9.16077986       8.10876364       4.56515811  F       0.00000000       0.00000000       0.00000000
Pd       1.52679695      10.81169175       6.09434358  F       0.00000000       0.00000000       0.00000000
Pd       9.17815541       8.10462536       7.66295938  T       0.00000000       0.00000000       0.00000000
Pd       9.18157259       2.69554827       7.66259631  T       0.00000000       0.00000000       0.00000000
Pd      10.72834492      -0.02614403       9.15267269  T       0.00000000       0.00000000       0.00000000
Pd       0.00000037       2.70292295       4.56515782  F       0.00000000       0.00000000       0.00000000
Pd       1.56203635      10.78718608       9.11134504  T       0.00000000       0.00000000       0.00000000
Pd       9.24462088       2.66681427      10.82047843  T       0.00000000       0.00000000       0.00000000
Pd       5.92142872       8.03979484      10.81176981  T       0.00000000       0.00000000       0.00000000
Pd      12.23174263       2.70047180       7.66386587  T       0.00000000       0.00000000       0.00000000
Pd      10.68757879       5.40584476       6.09434230  F       0.00000000       0.00000000       0.00000000
Pd       9.16077813       8.10876919       1.50000000  F       0.00000000       0.00000000       0.00000000
Pd      10.68757448       5.40584612       3.02679635  F       0.00000000       0.00000000       0.00000000
Pd      12.29379621       2.67779806      10.82431401  T       0.00000000       0.00000000       0.00000000
Pd       4.61089756      10.79461906       9.12801529  T       0.00000000       0.00000000       0.00000000
Pd       7.63398212       5.40584800       6.09434442  F       0.00000000       0.00000000       0.00000000
Pd       7.67888446       5.38449866       9.16541482  T       0.00000000       0.00000000       0.00000000
Pd       4.58038906       0.00000000       3.02679635  F       0.00000000       0.00000000       0.00000000
Pd       0.00000000       2.70292306       1.50000000  F       0.00000000       0.00000000       0.00000000
O        1.70168492       8.71289701      12.30139544  T       0.00000000       0.00000000       0.00000000
C        1.86089147      10.10973209      12.55263411  T       0.00000000       0.00000000       0.00000000
H        1.04731998      10.45140835      13.22087783  T       0.00000000       0.00000000       0.00000000
H        2.83643020      10.28694844      13.04483833  T       0.00000000       0.00000000       0.00000000
H        1.83077116      10.69848219      11.60829767  T       0.00000000       0.00000000       0.00000000
