109
Lattice="12.21437083684855 0.0 7e-16 1.7e-15 10.811692246786171 7e-16 0.0 0.0 29.250333490173453" Properties=species:S:1:pos:R:3:move_mask:L:1:momenta:R:3 adsorbate_info="_JSON {\"site\": {\"coordinates\": [4.58038220821276, 5.405846218644731, 9.112301628415747], \"connectivity\": 1, \"topology\": [74], \"n_vector\": [-0.07283531646621759, -0.02311834509796706, 0.9970760045228233], \"h_vector\": [1.0, 0.0, 0.0], \"site_formula\": {\"Pd\": 1}}, \"smiles\": \"ClOC\", \"mdf\": 1.7097869690905096, \"adsorbate_formula\": \"CH3O\"}" mace_E=-558.0813856978039 converged=T n_steps=64 d_min=1.9690063931633353 site_type=unknown dE_rel_meV=0 original_idx=98 rank=260 E_MACE=-557.6575900678371 pbc="T T T"
O        6.14750156       1.34840644       9.18489985  T       0.00000000       0.00000000       0.00000000
O        9.16077813       4.05438459       3.02679635  F       0.00000000       0.00000000       0.00000000
O        6.10707331       6.75909226       9.17294341  T       0.00000000       0.00000000       0.00000000
O        6.10215325       9.47629498       9.18176429  T       0.00000000       0.00000000       0.00000000
O        9.14596857       4.06143848       9.20444349  T       0.00000000       0.00000000       0.00000000
O        3.00533419       1.34740939       9.18479193  T       0.00000000       0.00000000       0.00000000
O        0.00000000       6.75730765       3.02679635  F       0.00000000       0.00000000       0.00000000
O        3.04914592       4.08660847       9.13778944  T       0.00000000       0.00000000       0.00000000
O        0.00000378       9.45637311       6.10263459  F       0.00000000       0.00000000       0.00000000
O        0.00000210       6.76116167       6.10263319  F       0.00000000       0.00000000       0.00000000
O       12.20093743       9.45931727       9.20887871  T       0.00000000       0.00000000       0.00000000
O       12.20888627       1.34932217       9.20863880  T       0.00000000       0.00000000       0.00000000
O       12.22169165       4.06233825       9.20356532  T       0.00000000       0.00000000       0.00000000
O        0.00000083       1.35531789       6.10263389  F       0.00000000       0.00000000       0.00000000
O        0.00000111       4.05052849       6.10263306  F       0.00000000       0.00000000       0.00000000
O        3.05359271       4.05438459       3.02679635  F       0.00000000       0.00000000       0.00000000
O        0.00000000       9.46023072       3.02679635  F       0.00000000       0.00000000       0.00000000
O        3.05359462       4.05052721       6.10264107  F       0.00000000       0.00000000       0.00000000
O        3.05359271       1.35146153       3.02679635  F       0.00000000       0.00000000       0.00000000
O        3.05359530       1.35531781       6.10264061  F       0.00000000       0.00000000       0.00000000
O        0.00000000       4.05438459       3.02679635  F       0.00000000       0.00000000       0.00000000
O        0.00000000       1.35146153       3.02679635  F       0.00000000       0.00000000       0.00000000
O        9.16077813       1.35146153       3.02679635  F       0.00000000       0.00000000       0.00000000
O        9.16077827       4.05052947       6.10263005  F       0.00000000       0.00000000       0.00000000
O       -0.01167530       6.75546931       9.20679079  T       0.00000000       0.00000000       0.00000000
O        9.15722822       1.34885327       9.20871714  T       0.00000000       0.00000000       0.00000000
O        9.16077740       1.35531546       6.10263307  F       0.00000000       0.00000000       0.00000000
O        6.10448985       4.08589895       9.13886556  T       0.00000000       0.00000000       0.00000000
O        6.10718702       1.35531501       6.10263790  F       0.00000000       0.00000000       0.00000000
O        6.10718706       4.05052983       6.10263604  F       0.00000000       0.00000000       0.00000000
O        6.10718542       1.35146153       3.02679635  F       0.00000000       0.00000000       0.00000000
O        6.10718542       4.05438459       3.02679635  F       0.00000000       0.00000000       0.00000000
O        3.05077943       9.47580006       9.18113302  T       0.00000000       0.00000000       0.00000000
O        3.05359386       6.76116323       6.10263934  F       0.00000000       0.00000000       0.00000000
O        3.05359337       9.45637518       6.10263943  F       0.00000000       0.00000000       0.00000000
O        3.05359271       6.75730765       3.02679635  F       0.00000000       0.00000000       0.00000000
O        3.04685165       6.75911843       9.17182148  T       0.00000000       0.00000000       0.00000000
O        6.10718542       9.46023072       3.02679635  F       0.00000000       0.00000000       0.00000000
O        6.10718542       6.75730765       3.02679635  F       0.00000000       0.00000000       0.00000000
O        6.10718315       9.45637324       6.10264060  F       0.00000000       0.00000000       0.00000000
O        6.10718523       6.76116316       6.10264025  F       0.00000000       0.00000000       0.00000000
O        9.16624440       6.75593229       9.20650979  T       0.00000000       0.00000000       0.00000000
O        9.16522555       9.46020966       9.20902471  T       0.00000000       0.00000000       0.00000000
O        9.16078028       6.76116138       6.10263509  F       0.00000000       0.00000000       0.00000000
O        9.16078018       9.45637411       6.10263910  F       0.00000000       0.00000000       0.00000000
O        9.16077813       6.75730765       3.02679635  F       0.00000000       0.00000000       0.00000000
O        3.05359271       9.46023072       3.02679635  F       0.00000000       0.00000000       0.00000000
O        9.16077813       9.46023072       3.02679635  F       0.00000000       0.00000000       0.00000000
Pd       3.05359414       2.70292461       4.56516084  F       0.00000000       0.00000000       0.00000000
Pd       6.10718542       2.70292306       1.50000000  F       0.00000000       0.00000000       0.00000000
Pd       3.05359287       8.10876720       4.56515841  F       0.00000000       0.00000000       0.00000000
Pd       3.28776648       2.43352881      10.91120654  T       0.00000000       0.00000000       0.00000000
Pd       3.02399299       2.71628494       7.66202866  T       0.00000000       0.00000000       0.00000000
Pd       3.05359271       2.70292306       1.50000000  F       0.00000000       0.00000000       0.00000000
Pd       4.58038906       5.40584612       3.02679635  F       0.00000000       0.00000000       0.00000000
Pd       4.58038878       0.00000011       6.09434618  F       0.00000000       0.00000000       0.00000000
Pd       4.58038808       5.40584530       6.09434913  F       0.00000000       0.00000000       0.00000000
Pd       7.63398177       0.00000000       3.02679635  F       0.00000000       0.00000000       0.00000000
Pd       3.05359271       8.10876919       1.50000000  F       0.00000000       0.00000000       0.00000000
Pd       6.10851327       8.11488236       7.65758510  T       0.00000000       0.00000000       0.00000000
Pd       7.63398372      10.81169054       6.09434173  F       0.00000000       0.00000000       0.00000000
Pd       6.10718498       8.10876457       4.56515665  F       0.00000000       0.00000000       0.00000000
Pd       1.52679863       5.40584339       6.09434623  F       0.00000000       0.00000000       0.00000000
Pd       7.63398177       5.40584612       3.02679635  F       0.00000000       0.00000000       0.00000000
Pd       6.10718542       8.10876919       1.50000000  F       0.00000000       0.00000000       0.00000000
Pd      -0.01528011       8.10739745       7.66664541  T       0.00000000       0.00000000       0.00000000
Pd       5.86329049       2.43764808      10.90949734  T       0.00000000       0.00000000       0.00000000
Pd       1.52223536       5.41723503       9.11376497  T       0.00000000       0.00000000       0.00000000
Pd       7.64785009      -0.01249959       9.15162882  T       0.00000000       0.00000000       0.00000000
Pd       6.13267910       2.71628198       7.66174860  T       0.00000000       0.00000000       0.00000000
Pd      12.26763638       8.11324285      10.84528145  T       0.00000000       0.00000000       0.00000000
Pd       6.10718636       2.70292272       4.56515365  F       0.00000000       0.00000000       0.00000000
Pd       3.04872175       8.11474777       7.65688621  T       0.00000000       0.00000000       0.00000000
Pd       0.00000286       8.10876728       4.56515590  F       0.00000000       0.00000000       0.00000000
Pd       4.57685335       5.41686523       9.06535252  T       0.00000000       0.00000000       0.00000000
Pd       9.16077813       2.70292306       1.50000000  F       0.00000000       0.00000000       0.00000000
Pd       3.08077788       8.12102299      10.83165373  T       0.00000000       0.00000000       0.00000000
Pd       0.00000000       8.10876919       1.50000000  F       0.00000000       0.00000000       0.00000000
Pd       9.10294430       8.11379945      10.84460961  T       0.00000000       0.00000000       0.00000000
Pd       1.52679635       0.00000000       3.02679635  F       0.00000000       0.00000000       0.00000000
Pd       1.52679635       5.40584612       3.02679635  F       0.00000000       0.00000000       0.00000000
Pd      10.68757448       0.00000000       3.02679635  F       0.00000000       0.00000000       0.00000000
Pd      10.68384889       5.39714978       9.18450083  T       0.00000000       0.00000000       0.00000000
Pd       9.16077751       2.70292195       4.56515514  F       0.00000000       0.00000000       0.00000000
Pd      10.68757769      10.81169125       6.09434037  F       0.00000000       0.00000000       0.00000000
Pd       9.16077986       8.10876364       4.56515811  F       0.00000000       0.00000000       0.00000000
Pd       1.52679695      10.81169175       6.09434358  F       0.00000000       0.00000000       0.00000000
Pd       9.17135146       8.10825070       7.66658289  T       0.00000000       0.00000000       0.00000000
Pd       9.16996286       2.70417699       7.66343135  T       0.00000000       0.00000000       0.00000000
Pd      10.68308668       0.00460590       9.18947481  T       0.00000000       0.00000000       0.00000000
Pd       0.00000037       2.70292295       4.56515782  F       0.00000000       0.00000000       0.00000000
Pd       1.50387048      10.79836994       9.15104207  T       0.00000000       0.00000000       0.00000000
Pd       8.68146024       2.69021697      10.76864894  T       0.00000000       0.00000000       0.00000000
Pd       6.07088288       8.12036841      10.83269092  T       0.00000000       0.00000000       0.00000000
Pd      12.20157175       2.70463191       7.66303519  T       0.00000000       0.00000000       0.00000000
Pd      10.68757879       5.40584476       6.09434230  F       0.00000000       0.00000000       0.00000000
Pd       9.16077813       8.10876919       1.50000000  F       0.00000000       0.00000000       0.00000000
Pd      10.68757448       5.40584612       3.02679635  F       0.00000000       0.00000000       0.00000000
Pd      12.68753368       2.69137420      10.76783405  T       0.00000000       0.00000000       0.00000000
Pd       4.57624411      10.81458497       9.13609156  T       0.00000000       0.00000000       0.00000000
Pd       7.63398212       5.40584800       6.09434442  F       0.00000000       0.00000000       0.00000000
Pd       7.63178053       5.41691187       9.11397021  T       0.00000000       0.00000000       0.00000000
Pd       4.58038906       0.00000000       3.02679635  F       0.00000000       0.00000000       0.00000000
Pd       0.00000000       2.70292306       1.50000000  F       0.00000000       0.00000000       0.00000000
O        4.57287053       3.33812111      12.32132981  T       0.00000000       0.00000000       0.00000000
C        4.56620245       4.76871593      12.46812384  T       0.00000000       0.00000000       0.00000000
H        4.55222559       5.00991742      13.54805494  T       0.00000000       0.00000000       0.00000000
H        5.47068730       5.21415707      12.01085633  T       0.00000000       0.00000000       0.00000000
H        3.67429125       5.21150166      11.98303388  T       0.00000000       0.00000000       0.00000000
