109
Lattice="12.21437083684855 0.0 7e-16 1.7e-15 10.811692246786171 7e-16 0.0 0.0 29.250333490173453" Properties=species:S:1:pos:R:3:move_mask:L:1:momenta:R:3 adsorbate_info="_JSON {\"site\": {\"coordinates\": [2.290185867040341, 4.054371411578555, 9.944976986866164], \"connectivity\": 2, \"topology\": [51, 67], \"n_vector\": [-0.10637915281653645, 0.45780351327419266, 0.8826660858330528], \"h_vector\": [0.43339580759009383, -0.7672630531448363, 0.4727319338083628], \"site_formula\": {\"Pd\": 2}}, \"smiles\": \"ClOC\", \"mdf\": 2.1151031158845726, \"adsorbate_formula\": \"CH3O\"}" mace_E=-558.1174790260507 converged=T n_steps=120 d_min=2.128195902714104 site_type=unknown dE_rel_meV=0 original_idx=43 rank=5 E_MACE=-558.1207769233309 pbc="T T T"
O        6.17514502       1.36520962       9.20446611  T       0.00000000       0.00000000       0.00000000
O        9.16077813       4.05438459       3.02679635  F       0.00000000       0.00000000       0.00000000
O        6.14496665       6.76582924       9.21126108  T       0.00000000       0.00000000       0.00000000
O        6.16067683       9.47103338       9.19719250  T       0.00000000       0.00000000       0.00000000
O        9.21141848       4.07378348       9.18574496  T       0.00000000       0.00000000       0.00000000
O        3.10738367       1.33930596       9.16527248  T       0.00000000       0.00000000       0.00000000
O        0.00000000       6.75730765       3.02679635  F       0.00000000       0.00000000       0.00000000
O        3.10750179       4.06901098       9.17336638  T       0.00000000       0.00000000       0.00000000
O        0.00000378       9.45637311       6.10263459  F       0.00000000       0.00000000       0.00000000
O        0.00000210       6.76116167       6.10263319  F       0.00000000       0.00000000       0.00000000
O       12.23195654       9.46712296       9.17676438  T       0.00000000       0.00000000       0.00000000
O       12.26858247       1.33541697       9.17181425  T       0.00000000       0.00000000       0.00000000
O       12.26976734       4.06311337       9.17182697  T       0.00000000       0.00000000       0.00000000
O        0.00000083       1.35531789       6.10263389  F       0.00000000       0.00000000       0.00000000
O        0.00000111       4.05052849       6.10263306  F       0.00000000       0.00000000       0.00000000
O        3.05359271       4.05438459       3.02679635  F       0.00000000       0.00000000       0.00000000
O        0.00000000       9.46023072       3.02679635  F       0.00000000       0.00000000       0.00000000
O        3.05359462       4.05052721       6.10264107  F       0.00000000       0.00000000       0.00000000
O        3.05359271       1.35146153       3.02679635  F       0.00000000       0.00000000       0.00000000
O        3.05359530       1.35531781       6.10264061  F       0.00000000       0.00000000       0.00000000
O        0.00000000       4.05438459       3.02679635  F       0.00000000       0.00000000       0.00000000
O        0.00000000       1.35146153       3.02679635  F       0.00000000       0.00000000       0.00000000
O        9.16077813       1.35146153       3.02679635  F       0.00000000       0.00000000       0.00000000
O        9.16077827       4.05052947       6.10263005  F       0.00000000       0.00000000       0.00000000
O        0.05667212       6.74385441       9.17357216  T       0.00000000       0.00000000       0.00000000
O        9.20971960       1.35545552       9.20673628  T       0.00000000       0.00000000       0.00000000
O        9.16077740       1.35531546       6.10263307  F       0.00000000       0.00000000       0.00000000
O        6.16320690       4.07269542       9.19116596  T       0.00000000       0.00000000       0.00000000
O        6.10718702       1.35531501       6.10263790  F       0.00000000       0.00000000       0.00000000
O        6.10718706       4.05052983       6.10263604  F       0.00000000       0.00000000       0.00000000
O        6.10718542       1.35146153       3.02679635  F       0.00000000       0.00000000       0.00000000
O        6.10718542       4.05438459       3.02679635  F       0.00000000       0.00000000       0.00000000
O        3.15785748       9.48326079       9.13471034  T       0.00000000       0.00000000       0.00000000
O        3.05359386       6.76116323       6.10263934  F       0.00000000       0.00000000       0.00000000
O        3.05359337       9.45637518       6.10263943  F       0.00000000       0.00000000       0.00000000
O        3.05359271       6.75730765       3.02679635  F       0.00000000       0.00000000       0.00000000
O        3.10472390       6.74862644       9.17071856  T       0.00000000       0.00000000       0.00000000
O        6.10718542       9.46023072       3.02679635  F       0.00000000       0.00000000       0.00000000
O        6.10718542       6.75730765       3.02679635  F       0.00000000       0.00000000       0.00000000
O        6.10718315       9.45637324       6.10264060  F       0.00000000       0.00000000       0.00000000
O        6.10718523       6.76116316       6.10264025  F       0.00000000       0.00000000       0.00000000
O        9.22956982       6.76155837       9.20842470  T       0.00000000       0.00000000       0.00000000
O        9.21461574       9.46160508       9.21178450  T       0.00000000       0.00000000       0.00000000
O        9.16078028       6.76116138       6.10263509  F       0.00000000       0.00000000       0.00000000
O        9.16078018       9.45637411       6.10263910  F       0.00000000       0.00000000       0.00000000
O        9.16077813       6.75730765       3.02679635  F       0.00000000       0.00000000       0.00000000
O        3.05359271       9.46023072       3.02679635  F       0.00000000       0.00000000       0.00000000
O        9.16077813       9.46023072       3.02679635  F       0.00000000       0.00000000       0.00000000
Pd       3.05359414       2.70292461       4.56516084  F       0.00000000       0.00000000       0.00000000
Pd       6.10718542       2.70292306       1.50000000  F       0.00000000       0.00000000       0.00000000
Pd       3.05359287       8.10876720       4.56515841  F       0.00000000       0.00000000       0.00000000
Pd       3.10372952       2.68685069      10.81639250  T       0.00000000       0.00000000       0.00000000
Pd       3.08264153       2.70443615       7.65396055  T       0.00000000       0.00000000       0.00000000
Pd       3.05359271       2.70292306       1.50000000  F       0.00000000       0.00000000       0.00000000
Pd       4.58038906       5.40584612       3.02679635  F       0.00000000       0.00000000       0.00000000
Pd       4.58038878       0.00000011       6.09434618  F       0.00000000       0.00000000       0.00000000
Pd       4.58038808       5.40584530       6.09434913  F       0.00000000       0.00000000       0.00000000
Pd       7.63398177       0.00000000       3.02679635  F       0.00000000       0.00000000       0.00000000
Pd       3.05359271       8.10876919       1.50000000  F       0.00000000       0.00000000       0.00000000
Pd       6.14765408       8.10830886       7.66233123  T       0.00000000       0.00000000       0.00000000
Pd       7.63398372      10.81169054       6.09434173  F       0.00000000       0.00000000       0.00000000
Pd       6.10718498       8.10876457       4.56515665  F       0.00000000       0.00000000       0.00000000
Pd       1.52679863       5.40584339       6.09434623  F       0.00000000       0.00000000       0.00000000
Pd       7.63398177       5.40584612       3.02679635  F       0.00000000       0.00000000       0.00000000
Pd       6.10718542       8.10876919       1.50000000  F       0.00000000       0.00000000       0.00000000
Pd       0.00337227       8.09130800       7.66821593  T       0.00000000       0.00000000       0.00000000
Pd       6.08906461       2.71913295      10.83285255  T       0.00000000       0.00000000       0.00000000
Pd       1.57874209       5.41104621       9.10375003  T       0.00000000       0.00000000       0.00000000
Pd       7.69158403      -0.00099367       9.18251993  T       0.00000000       0.00000000       0.00000000
Pd       6.14839255       2.70935636       7.66187706  T       0.00000000       0.00000000       0.00000000
Pd      12.56447284       8.43499778      10.92310637  T       0.00000000       0.00000000       0.00000000
Pd       6.10718636       2.70292272       4.56515365  F       0.00000000       0.00000000       0.00000000
Pd       3.10086460       8.09194804       7.65526025  T       0.00000000       0.00000000       0.00000000
Pd       0.00000286       8.10876728       4.56515590  F       0.00000000       0.00000000       0.00000000
Pd       4.62988492       5.41141499       9.12554433  T       0.00000000       0.00000000       0.00000000
Pd       9.16077813       2.70292306       1.50000000  F       0.00000000       0.00000000       0.00000000
Pd       2.90866404       8.45084183      10.85847915  T       0.00000000       0.00000000       0.00000000
Pd       0.00000000       8.10876919       1.50000000  F       0.00000000       0.00000000       0.00000000
Pd       9.76125116       8.12776264      10.75730854  T       0.00000000       0.00000000       0.00000000
Pd       1.52679635       0.00000000       3.02679635  F       0.00000000       0.00000000       0.00000000
Pd       1.52679635       5.40584612       3.02679635  F       0.00000000       0.00000000       0.00000000
Pd      10.68757448       0.00000000       3.02679635  F       0.00000000       0.00000000       0.00000000
Pd      10.74601490       5.40790294       9.12006191  T       0.00000000       0.00000000       0.00000000
Pd       9.16077751       2.70292195       4.56515514  F       0.00000000       0.00000000       0.00000000
Pd      10.68757769      10.81169125       6.09434037  F       0.00000000       0.00000000       0.00000000
Pd       9.16077986       8.10876364       4.56515811  F       0.00000000       0.00000000       0.00000000
Pd       1.52679695      10.81169175       6.09434358  F       0.00000000       0.00000000       0.00000000
Pd       9.17930802       8.11117211       7.66528169  T       0.00000000       0.00000000       0.00000000
Pd       9.17688752       2.70676271       7.66250747  T       0.00000000       0.00000000       0.00000000
Pd      10.72545275       0.01242375       9.15261186  T       0.00000000       0.00000000       0.00000000
Pd       0.00000037       2.70292295       4.56515782  F       0.00000000       0.00000000       0.00000000
Pd       1.58289441      10.81446228       9.10974467  T       0.00000000       0.00000000       0.00000000
Pd       9.34183162       2.71783501      10.81665045  T       0.00000000       0.00000000       0.00000000
Pd       5.63536462       8.14891547      10.76520692  T       0.00000000       0.00000000       0.00000000
Pd      12.23660761       2.70004192       7.65446710  T       0.00000000       0.00000000       0.00000000
Pd      10.68757879       5.40584476       6.09434230  F       0.00000000       0.00000000       0.00000000
Pd       9.16077813       8.10876919       1.50000000  F       0.00000000       0.00000000       0.00000000
Pd      10.68757448       5.40584612       3.02679635  F       0.00000000       0.00000000       0.00000000
Pd      12.35196902       2.69420958      10.82091039  T       0.00000000       0.00000000       0.00000000
Pd       4.66007124      10.83839864       9.13418630  T       0.00000000       0.00000000       0.00000000
Pd       7.63398212       5.40584800       6.09434442  F       0.00000000       0.00000000       0.00000000
Pd       7.68817796       5.42799728       9.16900045  T       0.00000000       0.00000000       0.00000000
Pd       4.58038906       0.00000000       3.02679635  F       0.00000000       0.00000000       0.00000000
Pd       0.00000000       2.70292306       1.50000000  F       0.00000000       0.00000000       0.00000000
O        1.72530881       7.68266989      12.36711921  T       0.00000000       0.00000000       0.00000000
C        1.79175427       6.28236725      12.66929638  T       0.00000000       0.00000000       0.00000000
H        2.75417469       6.06155037      13.16702660  T       0.00000000       0.00000000       0.00000000
H        0.96376788       6.02932884      13.35645151  T       0.00000000       0.00000000       0.00000000
H        1.71173814       5.66072537      11.75164420  T       0.00000000       0.00000000       0.00000000
