109
Lattice="12.21437083684855 0.0 7e-16 1.7e-15 10.811692246786171 7e-16 0.0 0.0 29.250333490173453" Properties=species:S:1:pos:R:3:move_mask:L:1:momenta:R:3 adsorbate_info="_JSON {\"site\": {\"coordinates\": [2.2901881372780077, 9.460230426237445, 9.944968293885267], \"connectivity\": 2, \"topology\": [76, 91], \"n_vector\": [-0.08536525041610217, 0.4930079803442712, 0.8658267178473179], \"h_vector\": [-0.4333994370039755, 0.767261287415369, -0.47273147223169687], \"site_formula\": {\"Pd\": 2}}, \"smiles\": \"ClOC\", \"mdf\": 2.165810700462088, \"adsorbate_formula\": \"CH3O\"}" mace_E=-558.0875944838914 converged=T n_steps=67 d_min=2.0655296011001827 site_type=unknown dE_rel_meV=0 original_idx=49 rank=8 E_MACE=-558.1174790260507 pbc="T T T"
O        6.09296600       1.32784699       9.18974717  T       0.00000000       0.00000000       0.00000000
O        9.16077813       4.05438459       3.02679635  F       0.00000000       0.00000000       0.00000000
O        6.09146687       6.74183536       9.20927460  T       0.00000000       0.00000000       0.00000000
O        6.07427275       9.44390690       9.21522814  T       0.00000000       0.00000000       0.00000000
O        9.13828636       4.04171169       9.20744053  T       0.00000000       0.00000000       0.00000000
O        3.03558281       1.33387983       9.17590964  T       0.00000000       0.00000000       0.00000000
O        0.00000000       6.75730765       3.02679635  F       0.00000000       0.00000000       0.00000000
O        3.03768795       4.06162932       9.18552721  T       0.00000000       0.00000000       0.00000000
O        0.00000378       9.45637311       6.10263459  F       0.00000000       0.00000000       0.00000000
O        0.00000210       6.76116167       6.10263319  F       0.00000000       0.00000000       0.00000000
O       12.19645042       9.46869891       9.16843920  T       0.00000000       0.00000000       0.00000000
O       12.19263890       1.33336886       9.17356946  T       0.00000000       0.00000000       0.00000000
O       12.20123169       4.06326707       9.18266676  T       0.00000000       0.00000000       0.00000000
O        0.00000083       1.35531789       6.10263389  F       0.00000000       0.00000000       0.00000000
O        0.00000111       4.05052849       6.10263306  F       0.00000000       0.00000000       0.00000000
O        3.05359271       4.05438459       3.02679635  F       0.00000000       0.00000000       0.00000000
O        0.00000000       9.46023072       3.02679635  F       0.00000000       0.00000000       0.00000000
O        3.05359462       4.05052721       6.10264107  F       0.00000000       0.00000000       0.00000000
O        3.05359271       1.35146153       3.02679635  F       0.00000000       0.00000000       0.00000000
O        3.05359530       1.35531781       6.10264061  F       0.00000000       0.00000000       0.00000000
O        0.00000000       4.05438459       3.02679635  F       0.00000000       0.00000000       0.00000000
O        0.00000000       1.35146153       3.02679635  F       0.00000000       0.00000000       0.00000000
O        9.16077813       1.35146153       3.02679635  F       0.00000000       0.00000000       0.00000000
O        9.16077827       4.05052947       6.10263005  F       0.00000000       0.00000000       0.00000000
O       -0.05503901       6.74449535       9.18040084  T       0.00000000       0.00000000       0.00000000
O        9.13268913       1.32523643       9.18822886  T       0.00000000       0.00000000       0.00000000
O        9.16077740       1.35531546       6.10263307  F       0.00000000       0.00000000       0.00000000
O        6.10054497       4.03930995       9.21560327  T       0.00000000       0.00000000       0.00000000
O        6.10718702       1.35531501       6.10263790  F       0.00000000       0.00000000       0.00000000
O        6.10718706       4.05052983       6.10263604  F       0.00000000       0.00000000       0.00000000
O        6.10718542       1.35146153       3.02679635  F       0.00000000       0.00000000       0.00000000
O        6.10718542       4.05438459       3.02679635  F       0.00000000       0.00000000       0.00000000
O        3.03193976       9.46944963       9.16536093  T       0.00000000       0.00000000       0.00000000
O        3.05359386       6.76116323       6.10263934  F       0.00000000       0.00000000       0.00000000
O        3.05359337       9.45637518       6.10263943  F       0.00000000       0.00000000       0.00000000
O        3.05359271       6.75730765       3.02679635  F       0.00000000       0.00000000       0.00000000
O        3.07885207       6.74824176       9.18865848  T       0.00000000       0.00000000       0.00000000
O        6.10718542       9.46023072       3.02679635  F       0.00000000       0.00000000       0.00000000
O        6.10718542       6.75730765       3.02679635  F       0.00000000       0.00000000       0.00000000
O        6.10718315       9.45637324       6.10264060  F       0.00000000       0.00000000       0.00000000
O        6.10718523       6.76116316       6.10264025  F       0.00000000       0.00000000       0.00000000
O        9.14569202       6.74154640       9.20365539  T       0.00000000       0.00000000       0.00000000
O        9.15027733       9.44620165       9.21006047  T       0.00000000       0.00000000       0.00000000
O        9.16078028       6.76116138       6.10263509  F       0.00000000       0.00000000       0.00000000
O        9.16078018       9.45637411       6.10263910  F       0.00000000       0.00000000       0.00000000
O        9.16077813       6.75730765       3.02679635  F       0.00000000       0.00000000       0.00000000
O        3.05359271       9.46023072       3.02679635  F       0.00000000       0.00000000       0.00000000
O        9.16077813       9.46023072       3.02679635  F       0.00000000       0.00000000       0.00000000
Pd       3.05359414       2.70292461       4.56516084  F       0.00000000       0.00000000       0.00000000
Pd       6.10718542       2.70292306       1.50000000  F       0.00000000       0.00000000       0.00000000
Pd       3.05359287       8.10876720       4.56515841  F       0.00000000       0.00000000       0.00000000
Pd       3.00025969       2.69057481      10.82569498  T       0.00000000       0.00000000       0.00000000
Pd       3.04721423       2.70099422       7.65945916  T       0.00000000       0.00000000       0.00000000
Pd       3.05359271       2.70292306       1.50000000  F       0.00000000       0.00000000       0.00000000
Pd       4.58038906       5.40584612       3.02679635  F       0.00000000       0.00000000       0.00000000
Pd       4.58038878       0.00000011       6.09434618  F       0.00000000       0.00000000       0.00000000
Pd       4.58038808       5.40584530       6.09434913  F       0.00000000       0.00000000       0.00000000
Pd       7.63398177       0.00000000       3.02679635  F       0.00000000       0.00000000       0.00000000
Pd       3.05359271       8.10876919       1.50000000  F       0.00000000       0.00000000       0.00000000
Pd       6.10566932       8.10269381       7.66769616  T       0.00000000       0.00000000       0.00000000
Pd       7.63398372      10.81169054       6.09434173  F       0.00000000       0.00000000       0.00000000
Pd       6.10718498       8.10876457       4.56515665  F       0.00000000       0.00000000       0.00000000
Pd       1.52679863       5.40584339       6.09434623  F       0.00000000       0.00000000       0.00000000
Pd       7.63398177       5.40584612       3.02679635  F       0.00000000       0.00000000       0.00000000
Pd       6.10718542       8.10876919       1.50000000  F       0.00000000       0.00000000       0.00000000
Pd      -0.03229180       8.11871482       7.66482122  T       0.00000000       0.00000000       0.00000000
Pd       6.02746240       2.66386724      10.83804499  T       0.00000000       0.00000000       0.00000000
Pd       1.51401208       5.40233759       9.13693359  T       0.00000000       0.00000000       0.00000000
Pd       7.61195475      -0.03032155       9.17243412  T       0.00000000       0.00000000       0.00000000
Pd       6.10821981       2.69611062       7.66701278  T       0.00000000       0.00000000       0.00000000
Pd      12.42641121       7.82114453      10.91035373  T       0.00000000       0.00000000       0.00000000
Pd       6.10718636       2.70292272       4.56515365  F       0.00000000       0.00000000       0.00000000
Pd       3.06756033       8.11640587       7.66487196  T       0.00000000       0.00000000       0.00000000
Pd       0.00000286       8.10876728       4.56515590  F       0.00000000       0.00000000       0.00000000
Pd       4.58180849       5.38326355       9.15963868  T       0.00000000       0.00000000       0.00000000
Pd       9.16077813       2.70292306       1.50000000  F       0.00000000       0.00000000       0.00000000
Pd       2.79537831       7.84434130      10.91385448  T       0.00000000       0.00000000       0.00000000
Pd       0.00000000       8.10876919       1.50000000  F       0.00000000       0.00000000       0.00000000
Pd       9.56155503       8.06997867      10.78754098  T       0.00000000       0.00000000       0.00000000
Pd       1.52679635       0.00000000       3.02679635  F       0.00000000       0.00000000       0.00000000
Pd       1.52679635       5.40584612       3.02679635  F       0.00000000       0.00000000       0.00000000
Pd      10.68757448       0.00000000       3.02679635  F       0.00000000       0.00000000       0.00000000
Pd      10.65660299       5.38410253       9.15765026  T       0.00000000       0.00000000       0.00000000
Pd       9.16077751       2.70292195       4.56515514  F       0.00000000       0.00000000       0.00000000
Pd      10.68757769      10.81169125       6.09434037  F       0.00000000       0.00000000       0.00000000
Pd       9.16077986       8.10876364       4.56515811  F       0.00000000       0.00000000       0.00000000
Pd       1.52679695      10.81169175       6.09434358  F       0.00000000       0.00000000       0.00000000
Pd       9.14560048       8.10355703       7.66446176  T       0.00000000       0.00000000       0.00000000
Pd       9.14461342       2.69486438       7.66507680  T       0.00000000       0.00000000       0.00000000
Pd      10.66786621      -0.01138710       9.12484527  T       0.00000000       0.00000000       0.00000000
Pd       0.00000037       2.70292295       4.56515782  F       0.00000000       0.00000000       0.00000000
Pd       1.50595545      10.80450304       9.09855323  T       0.00000000       0.00000000       0.00000000
Pd       9.16048527       2.67671169      10.83137568  T       0.00000000       0.00000000       0.00000000
Pd       5.64095573       8.07132365      10.78967220  T       0.00000000       0.00000000       0.00000000
Pd      12.20320398       2.70196296       7.65765005  T       0.00000000       0.00000000       0.00000000
Pd      10.68757879       5.40584476       6.09434230  F       0.00000000       0.00000000       0.00000000
Pd       9.16077813       8.10876919       1.50000000  F       0.00000000       0.00000000       0.00000000
Pd      10.68757448       5.40584612       3.02679635  F       0.00000000       0.00000000       0.00000000
Pd      12.19516196       2.69818941      10.82330106  T       0.00000000       0.00000000       0.00000000
Pd       4.55800541      10.80108215       9.12583366  T       0.00000000       0.00000000       0.00000000
Pd       7.63398212       5.40584800       6.09434442  F       0.00000000       0.00000000       0.00000000
Pd       7.61816009       5.39931421       9.18990672  T       0.00000000       0.00000000       0.00000000
Pd       4.58038906       0.00000000       3.02679635  F       0.00000000       0.00000000       0.00000000
Pd       0.00000000       2.70292306       1.50000000  F       0.00000000       0.00000000       0.00000000
O        1.48208086       8.64005914      12.36585082  T       0.00000000       0.00000000       0.00000000
C        1.43006005      10.03142750      12.71315987  T       0.00000000       0.00000000       0.00000000
H        1.27003522      10.11004043      13.80567353  T       0.00000000       0.00000000       0.00000000
H        2.38029212      10.53764037      12.45801409  T       0.00000000       0.00000000       0.00000000
H        0.59904167      10.54408885      12.19056516  T       0.00000000       0.00000000       0.00000000
