109
Lattice="12.21437083684855 0.0 7e-16 1.7e-15 10.811692246786171 7e-16 0.0 0.0 29.250333490173453" Properties=species:S:1:pos:R:3:move_mask:L:1:momenta:R:3 adsorbate_info="_JSON {\"site\": {\"coordinates\": [1.5267845170873537, 2.7029089124854995, 10.77764857802947], \"connectivity\": 2, \"topology\": [51, 98], \"n_vector\": [-0.0010877629019786011, -0.0009520128437693366, 0.9999989552211614], \"h_vector\": [-0.9999999999900574, 3.197485442525882e-06, -3.108274770065296e-06], \"site_formula\": {\"Pd\": 2}}, \"smiles\": \"ClOC\", \"mdf\": 2.1384867612853826, \"adsorbate_formula\": \"CH3O\"}" mace_E=-557.8682461555231 converged=T n_steps=80 d_min=1.883851500648739 site_type=unknown dE_rel_meV=0 original_idx=26 rank=129 E_MACE=-557.8607308358253 pbc="T T T"
O        6.07664996       1.33046834       9.18322418  T       0.00000000       0.00000000       0.00000000
O        9.16077813       4.05438459       3.02679635  F       0.00000000       0.00000000       0.00000000
O        6.07895923       6.73766026       9.17513477  T       0.00000000       0.00000000       0.00000000
O        6.08118823       9.45721623       9.19639142  T       0.00000000       0.00000000       0.00000000
O        9.12405141       4.05192643       9.20390138  T       0.00000000       0.00000000       0.00000000
O        3.04888602       1.34293776       9.17404176  T       0.00000000       0.00000000       0.00000000
O        0.00000000       6.75730765       3.02679635  F       0.00000000       0.00000000       0.00000000
O        3.03564754       4.05302102       9.17758396  T       0.00000000       0.00000000       0.00000000
O        0.00000378       9.45637311       6.10263459  F       0.00000000       0.00000000       0.00000000
O        0.00000210       6.76116167       6.10263319  F       0.00000000       0.00000000       0.00000000
O       12.18608714       9.46799974       9.19851604  T       0.00000000       0.00000000       0.00000000
O       12.18261759       1.35134503       9.18501233  T       0.00000000       0.00000000       0.00000000
O       12.19122458       4.03019958       9.21241309  T       0.00000000       0.00000000       0.00000000
O        0.00000083       1.35531789       6.10263389  F       0.00000000       0.00000000       0.00000000
O        0.00000111       4.05052849       6.10263306  F       0.00000000       0.00000000       0.00000000
O        3.05359271       4.05438459       3.02679635  F       0.00000000       0.00000000       0.00000000
O        0.00000000       9.46023072       3.02679635  F       0.00000000       0.00000000       0.00000000
O        3.05359462       4.05052721       6.10264107  F       0.00000000       0.00000000       0.00000000
O        3.05359271       1.35146153       3.02679635  F       0.00000000       0.00000000       0.00000000
O        3.05359530       1.35531781       6.10264061  F       0.00000000       0.00000000       0.00000000
O        0.00000000       4.05438459       3.02679635  F       0.00000000       0.00000000       0.00000000
O        0.00000000       1.35146153       3.02679635  F       0.00000000       0.00000000       0.00000000
O        9.16077813       1.35146153       3.02679635  F       0.00000000       0.00000000       0.00000000
O        9.16077827       4.05052947       6.10263005  F       0.00000000       0.00000000       0.00000000
O       -0.02744834       6.72746679       9.17195502  T       0.00000000       0.00000000       0.00000000
O        9.12212153       1.33831416       9.20019998  T       0.00000000       0.00000000       0.00000000
O        9.16077740       1.35531546       6.10263307  F       0.00000000       0.00000000       0.00000000
O        6.06298316       4.05237782       9.19698943  T       0.00000000       0.00000000       0.00000000
O        6.10718702       1.35531501       6.10263790  F       0.00000000       0.00000000       0.00000000
O        6.10718706       4.05052983       6.10263604  F       0.00000000       0.00000000       0.00000000
O        6.10718542       1.35146153       3.02679635  F       0.00000000       0.00000000       0.00000000
O        6.10718542       4.05438459       3.02679635  F       0.00000000       0.00000000       0.00000000
O        3.02398116       9.46387359       9.18751061  T       0.00000000       0.00000000       0.00000000
O        3.05359386       6.76116323       6.10263934  F       0.00000000       0.00000000       0.00000000
O        3.05359337       9.45637518       6.10263943  F       0.00000000       0.00000000       0.00000000
O        3.05359271       6.75730765       3.02679635  F       0.00000000       0.00000000       0.00000000
O        3.02033268       6.73500883       9.16552628  T       0.00000000       0.00000000       0.00000000
O        6.10718542       9.46023072       3.02679635  F       0.00000000       0.00000000       0.00000000
O        6.10718542       6.75730765       3.02679635  F       0.00000000       0.00000000       0.00000000
O        6.10718315       9.45637324       6.10264060  F       0.00000000       0.00000000       0.00000000
O        6.10718523       6.76116316       6.10264025  F       0.00000000       0.00000000       0.00000000
O        9.13037756       6.73408260       9.17982287  T       0.00000000       0.00000000       0.00000000
O        9.13613734       9.46231681       9.20074264  T       0.00000000       0.00000000       0.00000000
O        9.16078028       6.76116138       6.10263509  F       0.00000000       0.00000000       0.00000000
O        9.16078018       9.45637411       6.10263910  F       0.00000000       0.00000000       0.00000000
O        9.16077813       6.75730765       3.02679635  F       0.00000000       0.00000000       0.00000000
O        3.05359271       9.46023072       3.02679635  F       0.00000000       0.00000000       0.00000000
O        9.16077813       9.46023072       3.02679635  F       0.00000000       0.00000000       0.00000000
Pd       3.05359414       2.70292461       4.56516084  F       0.00000000       0.00000000       0.00000000
Pd       6.10718542       2.70292306       1.50000000  F       0.00000000       0.00000000       0.00000000
Pd       3.05359287       8.10876720       4.56515841  F       0.00000000       0.00000000       0.00000000
Pd       2.92031543       2.46264040      10.91570795  T       0.00000000       0.00000000       0.00000000
Pd       3.05342433       2.71081556       7.66189601  T       0.00000000       0.00000000       0.00000000
Pd       3.05359271       2.70292306       1.50000000  F       0.00000000       0.00000000       0.00000000
Pd       4.58038906       5.40584612       3.02679635  F       0.00000000       0.00000000       0.00000000
Pd       4.58038878       0.00000011       6.09434618  F       0.00000000       0.00000000       0.00000000
Pd       4.58038808       5.40584530       6.09434913  F       0.00000000       0.00000000       0.00000000
Pd       7.63398177       0.00000000       3.02679635  F       0.00000000       0.00000000       0.00000000
Pd       3.05359271       8.10876919       1.50000000  F       0.00000000       0.00000000       0.00000000
Pd       6.09635147       8.10613299       7.65750561  T       0.00000000       0.00000000       0.00000000
Pd       7.63398372      10.81169054       6.09434173  F       0.00000000       0.00000000       0.00000000
Pd       6.10718498       8.10876457       4.56515665  F       0.00000000       0.00000000       0.00000000
Pd       1.52679863       5.40584339       6.09434623  F       0.00000000       0.00000000       0.00000000
Pd       7.63398177       5.40584612       3.02679635  F       0.00000000       0.00000000       0.00000000
Pd       6.10718542       8.10876919       1.50000000  F       0.00000000       0.00000000       0.00000000
Pd      -0.01831867       8.10592305       7.66037977  T       0.00000000       0.00000000       0.00000000
Pd       5.91743296       2.65893330      10.83790396  T       0.00000000       0.00000000       0.00000000
Pd       1.50236943       5.38545889       9.11819933  T       0.00000000       0.00000000       0.00000000
Pd       7.60521772      -0.01112654       9.16295329  T       0.00000000       0.00000000       0.00000000
Pd       6.09417603       2.70038233       7.66217627  T       0.00000000       0.00000000       0.00000000
Pd      12.20804948       8.08541371      10.80907458  T       0.00000000       0.00000000       0.00000000
Pd       6.10718636       2.70292272       4.56515365  F       0.00000000       0.00000000       0.00000000
Pd       3.03661649       8.10682843       7.65483150  T       0.00000000       0.00000000       0.00000000
Pd       0.00000286       8.10876728       4.56515590  F       0.00000000       0.00000000       0.00000000
Pd       4.54640767       5.39738171       9.12159970  T       0.00000000       0.00000000       0.00000000
Pd       9.16077813       2.70292306       1.50000000  F       0.00000000       0.00000000       0.00000000
Pd       3.01174862       8.09229232      10.81600774  T       0.00000000       0.00000000       0.00000000
Pd       0.00000000       8.10876919       1.50000000  F       0.00000000       0.00000000       0.00000000
Pd       9.11737214       8.08727667      10.82143478  T       0.00000000       0.00000000       0.00000000
Pd       1.52679635       0.00000000       3.02679635  F       0.00000000       0.00000000       0.00000000
Pd       1.52679635       5.40584612       3.02679635  F       0.00000000       0.00000000       0.00000000
Pd      10.68757448       0.00000000       3.02679635  F       0.00000000       0.00000000       0.00000000
Pd      10.65957928       5.38319977       9.15826029  T       0.00000000       0.00000000       0.00000000
Pd       9.16077751       2.70292195       4.56515514  F       0.00000000       0.00000000       0.00000000
Pd      10.68757769      10.81169125       6.09434037  F       0.00000000       0.00000000       0.00000000
Pd       9.16077986       8.10876364       4.56515811  F       0.00000000       0.00000000       0.00000000
Pd       1.52679695      10.81169175       6.09434358  F       0.00000000       0.00000000       0.00000000
Pd       9.14827892       8.10589777       7.65997626  T       0.00000000       0.00000000       0.00000000
Pd       9.14566892       2.69996807       7.66194294  T       0.00000000       0.00000000       0.00000000
Pd      10.65306584      -0.00039448       9.16851583  T       0.00000000       0.00000000       0.00000000
Pd       0.00000037       2.70292295       4.56515782  F       0.00000000       0.00000000       0.00000000
Pd       1.50109858      10.80603138       9.14510153  T       0.00000000       0.00000000       0.00000000
Pd       8.85799485       2.68830459      10.80094163  T       0.00000000       0.00000000       0.00000000
Pd       6.06624285       8.08506683      10.82506144  T       0.00000000       0.00000000       0.00000000
Pd      12.18998731       2.70790588       7.65843893  T       0.00000000       0.00000000       0.00000000
Pd      10.68757879       5.40584476       6.09434230  F       0.00000000       0.00000000       0.00000000
Pd       9.16077813       8.10876919       1.50000000  F       0.00000000       0.00000000       0.00000000
Pd      10.68757448       5.40584612       3.02679635  F       0.00000000       0.00000000       0.00000000
Pd      12.42513706       2.55120723      10.82942273  T       0.00000000       0.00000000       0.00000000
Pd       4.55662373      10.79639417       9.14608053  T       0.00000000       0.00000000       0.00000000
Pd       7.63398212       5.40584800       6.09434442  F       0.00000000       0.00000000       0.00000000
Pd       7.59913484       5.39273651       9.15227864  T       0.00000000       0.00000000       0.00000000
Pd       4.58038906       0.00000000       3.02679635  F       0.00000000       0.00000000       0.00000000
Pd       0.00000000       2.70292306       1.50000000  F       0.00000000       0.00000000       0.00000000
O        0.55957042       3.70077173      12.39950408  T       0.00000000       0.00000000       0.00000000
C        1.90569990       3.92068962      12.65247000  T       0.00000000       0.00000000       0.00000000
H        2.05919795       4.16599850      13.72523871  T       0.00000000       0.00000000       0.00000000
H        2.57974419       2.93489908      12.63975461  T       0.00000000       0.00000000       0.00000000
H        2.37607080       4.71556394      12.03116858  T       0.00000000       0.00000000       0.00000000
