109
Lattice="12.21437083684855 0.0 7e-16 1.7e-15 10.811692246786171 7e-16 0.0 0.0 29.250333490173453" Properties=species:S:1:pos:R:3:move_mask:L:1:momenta:R:3 adsorbate_info="_JSON {\"site\": {\"coordinates\": [10.687568940811282, 1.9367175829172834e-06, 9.11228796828288], \"connectivity\": 1, \"topology\": [89], \"n_vector\": [0.0303624995120558, 0.026052664130484095, 0.9991993681518642], \"h_vector\": [1.0, 0.0, 0.0], \"site_formula\": {\"Pd\": 1}}, \"smiles\": \"ClOC\", \"mdf\": 1.7097869690905096, \"adsorbate_formula\": \"CH3O\"}" mace_E=-557.8660214824461 converged=T n_steps=94 d_min=2.069081756241841 site_type=unknown dE_rel_meV=0 original_idx=217 rank=2 E_MACE=-558.123295401935 pbc="T T T"
O        6.09879055       1.32847237       9.18628506  T       0.00000000       0.00000000       0.00000000
O        9.16077813       4.05438459       3.02679635  F       0.00000000       0.00000000       0.00000000
O        6.08800201       6.73130384       9.18711085  T       0.00000000       0.00000000       0.00000000
O        6.09120991       9.45302868       9.20401022  T       0.00000000       0.00000000       0.00000000
O        9.15742370       4.05450748       9.19779773  T       0.00000000       0.00000000       0.00000000
O        3.04646900       1.32857978       9.18540814  T       0.00000000       0.00000000       0.00000000
O        0.00000000       6.75730765       3.02679635  F       0.00000000       0.00000000       0.00000000
O        3.04566814       4.03896636       9.21158003  T       0.00000000       0.00000000       0.00000000
O        0.00000378       9.45637311       6.10263459  F       0.00000000       0.00000000       0.00000000
O        0.00000210       6.76116167       6.10263319  F       0.00000000       0.00000000       0.00000000
O       12.21206825       9.45451786       9.17617084  T       0.00000000       0.00000000       0.00000000
O       12.20153269       1.32220484       9.16749853  T       0.00000000       0.00000000       0.00000000
O       12.20772334       4.04708557       9.20270205  T       0.00000000       0.00000000       0.00000000
O        0.00000083       1.35531789       6.10263389  F       0.00000000       0.00000000       0.00000000
O        0.00000111       4.05052849       6.10263306  F       0.00000000       0.00000000       0.00000000
O        3.05359271       4.05438459       3.02679635  F       0.00000000       0.00000000       0.00000000
O        0.00000000       9.46023072       3.02679635  F       0.00000000       0.00000000       0.00000000
O        3.05359462       4.05052721       6.10264107  F       0.00000000       0.00000000       0.00000000
O        3.05359271       1.35146153       3.02679635  F       0.00000000       0.00000000       0.00000000
O        3.05359530       1.35531781       6.10264061  F       0.00000000       0.00000000       0.00000000
O        0.00000000       4.05438459       3.02679635  F       0.00000000       0.00000000       0.00000000
O        0.00000000       1.35146153       3.02679635  F       0.00000000       0.00000000       0.00000000
O        9.16077813       1.35146153       3.02679635  F       0.00000000       0.00000000       0.00000000
O        9.16077827       4.05052947       6.10263005  F       0.00000000       0.00000000       0.00000000
O        0.01415267       6.73910032       9.18048774  T       0.00000000       0.00000000       0.00000000
O        9.14944722       1.31982630       9.17961275  T       0.00000000       0.00000000       0.00000000
O        9.16077740       1.35531546       6.10263307  F       0.00000000       0.00000000       0.00000000
O        6.10141675       4.04788822       9.20728723  T       0.00000000       0.00000000       0.00000000
O        6.10718702       1.35531501       6.10263790  F       0.00000000       0.00000000       0.00000000
O        6.10718706       4.05052983       6.10263604  F       0.00000000       0.00000000       0.00000000
O        6.10718542       1.35146153       3.02679635  F       0.00000000       0.00000000       0.00000000
O        6.10718542       4.05438459       3.02679635  F       0.00000000       0.00000000       0.00000000
O        3.03873329       9.45406146       9.20201382  T       0.00000000       0.00000000       0.00000000
O        3.05359386       6.76116323       6.10263934  F       0.00000000       0.00000000       0.00000000
O        3.05359337       9.45637518       6.10263943  F       0.00000000       0.00000000       0.00000000
O        3.05359271       6.75730765       3.02679635  F       0.00000000       0.00000000       0.00000000
O        3.04199945       6.73103544       9.18548992  T       0.00000000       0.00000000       0.00000000
O        6.10718542       9.46023072       3.02679635  F       0.00000000       0.00000000       0.00000000
O        6.10718542       6.75730765       3.02679635  F       0.00000000       0.00000000       0.00000000
O        6.10718315       9.45637324       6.10264060  F       0.00000000       0.00000000       0.00000000
O        6.10718523       6.76116316       6.10264025  F       0.00000000       0.00000000       0.00000000
O        9.15146940       6.74566825       9.17792692  T       0.00000000       0.00000000       0.00000000
O        9.15356199       9.43015446       9.21103872  T       0.00000000       0.00000000       0.00000000
O        9.16078028       6.76116138       6.10263509  F       0.00000000       0.00000000       0.00000000
O        9.16078018       9.45637411       6.10263910  F       0.00000000       0.00000000       0.00000000
O        9.16077813       6.75730765       3.02679635  F       0.00000000       0.00000000       0.00000000
O        3.05359271       9.46023072       3.02679635  F       0.00000000       0.00000000       0.00000000
O        9.16077813       9.46023072       3.02679635  F       0.00000000       0.00000000       0.00000000
Pd       3.05359414       2.70292461       4.56516084  F       0.00000000       0.00000000       0.00000000
Pd       6.10718542       2.70292306       1.50000000  F       0.00000000       0.00000000       0.00000000
Pd       3.05359287       8.10876720       4.56515841  F       0.00000000       0.00000000       0.00000000
Pd       3.04800726       2.66833641      10.84685777  T       0.00000000       0.00000000       0.00000000
Pd       3.04973452       2.69675000       7.66532638  T       0.00000000       0.00000000       0.00000000
Pd       3.05359271       2.70292306       1.50000000  F       0.00000000       0.00000000       0.00000000
Pd       4.58038906       5.40584612       3.02679635  F       0.00000000       0.00000000       0.00000000
Pd       4.58038878       0.00000011       6.09434618  F       0.00000000       0.00000000       0.00000000
Pd       4.58038808       5.40584530       6.09434913  F       0.00000000       0.00000000       0.00000000
Pd       7.63398177       0.00000000       3.02679635  F       0.00000000       0.00000000       0.00000000
Pd       3.05359271       8.10876919       1.50000000  F       0.00000000       0.00000000       0.00000000
Pd       6.09830856       8.10392245       7.66025635  T       0.00000000       0.00000000       0.00000000
Pd       7.63398372      10.81169054       6.09434173  F       0.00000000       0.00000000       0.00000000
Pd       6.10718498       8.10876457       4.56515665  F       0.00000000       0.00000000       0.00000000
Pd       1.52679863       5.40584339       6.09434623  F       0.00000000       0.00000000       0.00000000
Pd       7.63398177       5.40584612       3.02679635  F       0.00000000       0.00000000       0.00000000
Pd       6.10718542       8.10876919       1.50000000  F       0.00000000       0.00000000       0.00000000
Pd       0.00902747       8.10465493       7.65635507  T       0.00000000       0.00000000       0.00000000
Pd       6.07004885       2.67508622      10.82633799  T       0.00000000       0.00000000       0.00000000
Pd       1.52370508       5.38308375       9.15386490  T       0.00000000       0.00000000       0.00000000
Pd       7.62423247      -0.02331506       9.15966427  T       0.00000000       0.00000000       0.00000000
Pd       6.10600477       2.69826562       7.66211725  T       0.00000000       0.00000000       0.00000000
Pd      12.08476768       8.00645105      10.85233020  T       0.00000000       0.00000000       0.00000000
Pd       6.10718636       2.70292272       4.56515365  F       0.00000000       0.00000000       0.00000000
Pd       3.05051317       8.10420425       7.66233675  T       0.00000000       0.00000000       0.00000000
Pd       0.00000286       8.10876728       4.56515590  F       0.00000000       0.00000000       0.00000000
Pd       4.56869785       5.38613998       9.16990665  T       0.00000000       0.00000000       0.00000000
Pd       9.16077813       2.70292306       1.50000000  F       0.00000000       0.00000000       0.00000000
Pd       2.98178129       8.06999151      10.83028598  T       0.00000000       0.00000000       0.00000000
Pd       0.00000000       8.10876919       1.50000000  F       0.00000000       0.00000000       0.00000000
Pd       9.32067607       7.94699014      10.82601198  T       0.00000000       0.00000000       0.00000000
Pd       1.52679635       0.00000000       3.02679635  F       0.00000000       0.00000000       0.00000000
Pd       1.52679635       5.40584612       3.02679635  F       0.00000000       0.00000000       0.00000000
Pd      10.68757448       0.00000000       3.02679635  F       0.00000000       0.00000000       0.00000000
Pd      10.68774405       5.39179623       9.14757048  T       0.00000000       0.00000000       0.00000000
Pd       9.16077751       2.70292195       4.56515514  F       0.00000000       0.00000000       0.00000000
Pd      10.68757769      10.81169125       6.09434037  F       0.00000000       0.00000000       0.00000000
Pd       9.16077986       8.10876364       4.56515811  F       0.00000000       0.00000000       0.00000000
Pd       1.52679695      10.81169175       6.09434358  F       0.00000000       0.00000000       0.00000000
Pd       9.14789776       8.11039333       7.65694081  T       0.00000000       0.00000000       0.00000000
Pd       9.15332756       2.69710764       7.66265394  T       0.00000000       0.00000000       0.00000000
Pd      10.67602912      -0.02161419       9.12121117  T       0.00000000       0.00000000       0.00000000
Pd       0.00000037       2.70292295       4.56515782  F       0.00000000       0.00000000       0.00000000
Pd       1.51826100      10.79886479       9.13714734  T       0.00000000       0.00000000       0.00000000
Pd       9.24414038       2.68057710      10.81798796  T       0.00000000       0.00000000       0.00000000
Pd       6.01341542       8.06389444      10.81750238  T       0.00000000       0.00000000       0.00000000
Pd      12.20707216       2.70186052       7.66032715  T       0.00000000       0.00000000       0.00000000
Pd      10.68757879       5.40584476       6.09434230  F       0.00000000       0.00000000       0.00000000
Pd       9.16077813       8.10876919       1.50000000  F       0.00000000       0.00000000       0.00000000
Pd      10.68757448       5.40584612       3.02679635  F       0.00000000       0.00000000       0.00000000
Pd      12.22528866       2.64146483      10.83338271  T       0.00000000       0.00000000       0.00000000
Pd       4.56833612      10.79514052       9.15416226  T       0.00000000       0.00000000       0.00000000
Pd       7.63398212       5.40584800       6.09434442  F       0.00000000       0.00000000       0.00000000
Pd       7.62193045       5.39236744       9.16231803  T       0.00000000       0.00000000       0.00000000
Pd       4.58038906       0.00000000       3.02679635  F       0.00000000       0.00000000       0.00000000
Pd       0.00000000       2.70292306       1.50000000  F       0.00000000       0.00000000       0.00000000
O        9.57380424      -1.70632687      12.41012545  T       0.00000000       0.00000000       0.00000000
C       10.79689992      -1.06595723      12.50958653  T       0.00000000       0.00000000       0.00000000
H       10.93313824      -0.66174683      13.53460947  T       0.00000000       0.00000000       0.00000000
H       11.73188730      -1.77407182      12.40858473  T       0.00000000       0.00000000       0.00000000
H       10.95266976      -0.25156507      11.76007609  T       0.00000000       0.00000000       0.00000000
