109
Lattice="12.21437083684855 0.0 7e-16 1.7e-15 10.811692246786171 7e-16 0.0 0.0 29.250333490173453" Properties=species:S:1:pos:R:3:move_mask:L:1:momenta:R:3 adsorbate_info="_JSON {\"site\": {\"coordinates\": [9.466139497263363, 5.17371583932201e-06, 9.794317490663108], \"connectivity\": 5, \"topology\": [25, 42, 78, 89, 92], \"n_vector\": [0.04494111140589402, 0.010869320476474398, 0.9989305052795128], \"h_vector\": [0.7530983284081592, -0.6576161643439686, -0.019593063628811584], \"site_formula\": {\"O\": 2, \"Pd\": 3}}, \"smiles\": \"ClOC\", \"mdf\": 2.230809046191878, \"adsorbate_formula\": \"CH3O\"}" mace_E=-557.812606127225 converged=T n_steps=62 d_min=1.8167772190832772 site_type=unknown dE_rel_meV=0 original_idx=196 rank=257 E_MACE=-557.8062881265791 pbc="T T T"
O        6.10658947       1.35091482       9.20439211  T       0.00000000       0.00000000       0.00000000
O        9.16077813       4.05438459       3.02679635  F       0.00000000       0.00000000       0.00000000
O        6.13496766       6.75315252       9.21719878  T       0.00000000       0.00000000       0.00000000
O        6.11945182       9.47555174       9.19565724  T       0.00000000       0.00000000       0.00000000
O        9.19884264       4.05282593       9.20789828  T       0.00000000       0.00000000       0.00000000
O        3.05998769       1.34417147       9.19099810  T       0.00000000       0.00000000       0.00000000
O        0.00000000       6.75730765       3.02679635  F       0.00000000       0.00000000       0.00000000
O        3.06688576       4.07711235       9.17210664  T       0.00000000       0.00000000       0.00000000
O        0.00000378       9.45637311       6.10263459  F       0.00000000       0.00000000       0.00000000
O        0.00000210       6.76116167       6.10263319  F       0.00000000       0.00000000       0.00000000
O       12.22996703       9.48197849       9.15990018  T       0.00000000       0.00000000       0.00000000
O       12.24291435       1.35134890       9.16767602  T       0.00000000       0.00000000       0.00000000
O       12.24165503       4.07988304       9.16908576  T       0.00000000       0.00000000       0.00000000
O        0.00000083       1.35531789       6.10263389  F       0.00000000       0.00000000       0.00000000
O        0.00000111       4.05052849       6.10263306  F       0.00000000       0.00000000       0.00000000
O        3.05359271       4.05438459       3.02679635  F       0.00000000       0.00000000       0.00000000
O        0.00000000       9.46023072       3.02679635  F       0.00000000       0.00000000       0.00000000
O        3.05359462       4.05052721       6.10264107  F       0.00000000       0.00000000       0.00000000
O        3.05359271       1.35146153       3.02679635  F       0.00000000       0.00000000       0.00000000
O        3.05359530       1.35531781       6.10264061  F       0.00000000       0.00000000       0.00000000
O        0.00000000       4.05438459       3.02679635  F       0.00000000       0.00000000       0.00000000
O        0.00000000       1.35146153       3.02679635  F       0.00000000       0.00000000       0.00000000
O        9.16077813       1.35146153       3.02679635  F       0.00000000       0.00000000       0.00000000
O        9.16077827       4.05052947       6.10263005  F       0.00000000       0.00000000       0.00000000
O        0.02163189       6.76215743       9.18931047  T       0.00000000       0.00000000       0.00000000
O        9.17735769       1.37715922       9.19935508  T       0.00000000       0.00000000       0.00000000
O        9.16077740       1.35531546       6.10263307  F       0.00000000       0.00000000       0.00000000
O        6.12384751       4.07115120       9.20616489  T       0.00000000       0.00000000       0.00000000
O        6.10718702       1.35531501       6.10263790  F       0.00000000       0.00000000       0.00000000
O        6.10718706       4.05052983       6.10263604  F       0.00000000       0.00000000       0.00000000
O        6.10718542       1.35146153       3.02679635  F       0.00000000       0.00000000       0.00000000
O        6.10718542       4.05438459       3.02679635  F       0.00000000       0.00000000       0.00000000
O        3.06303877       9.47333810       9.18548844  T       0.00000000       0.00000000       0.00000000
O        3.05359386       6.76116323       6.10263934  F       0.00000000       0.00000000       0.00000000
O        3.05359337       9.45637518       6.10263943  F       0.00000000       0.00000000       0.00000000
O        3.05359271       6.75730765       3.02679635  F       0.00000000       0.00000000       0.00000000
O        3.06973367       6.75295537       9.19151025  T       0.00000000       0.00000000       0.00000000
O        6.10718542       9.46023072       3.02679635  F       0.00000000       0.00000000       0.00000000
O        6.10718542       6.75730765       3.02679635  F       0.00000000       0.00000000       0.00000000
O        6.10718315       9.45637324       6.10264060  F       0.00000000       0.00000000       0.00000000
O        6.10718523       6.76116316       6.10264025  F       0.00000000       0.00000000       0.00000000
O        9.18655734       6.77592856       9.23962813  T       0.00000000       0.00000000       0.00000000
O        9.17621348       9.49105745       9.16340929  T       0.00000000       0.00000000       0.00000000
O        9.16078028       6.76116138       6.10263509  F       0.00000000       0.00000000       0.00000000
O        9.16078018       9.45637411       6.10263910  F       0.00000000       0.00000000       0.00000000
O        9.16077813       6.75730765       3.02679635  F       0.00000000       0.00000000       0.00000000
O        3.05359271       9.46023072       3.02679635  F       0.00000000       0.00000000       0.00000000
O        9.16077813       9.46023072       3.02679635  F       0.00000000       0.00000000       0.00000000
Pd       3.05359414       2.70292461       4.56516084  F       0.00000000       0.00000000       0.00000000
Pd       6.10718542       2.70292306       1.50000000  F       0.00000000       0.00000000       0.00000000
Pd       3.05359287       8.10876720       4.56515841  F       0.00000000       0.00000000       0.00000000
Pd       2.97186416       2.72712286      10.83273102  T       0.00000000       0.00000000       0.00000000
Pd       3.06408864       2.70345690       7.65855269  T       0.00000000       0.00000000       0.00000000
Pd       3.05359271       2.70292306       1.50000000  F       0.00000000       0.00000000       0.00000000
Pd       4.58038906       5.40584612       3.02679635  F       0.00000000       0.00000000       0.00000000
Pd       4.58038878       0.00000011       6.09434618  F       0.00000000       0.00000000       0.00000000
Pd       4.58038808       5.40584530       6.09434913  F       0.00000000       0.00000000       0.00000000
Pd       7.63398177       0.00000000       3.02679635  F       0.00000000       0.00000000       0.00000000
Pd       3.05359271       8.10876919       1.50000000  F       0.00000000       0.00000000       0.00000000
Pd       6.12424278       8.10748831       7.66817425  T       0.00000000       0.00000000       0.00000000
Pd       7.63398372      10.81169054       6.09434173  F       0.00000000       0.00000000       0.00000000
Pd       6.10718498       8.10876457       4.56515665  F       0.00000000       0.00000000       0.00000000
Pd       1.52679863       5.40584339       6.09434623  F       0.00000000       0.00000000       0.00000000
Pd       7.63398177       5.40584612       3.02679635  F       0.00000000       0.00000000       0.00000000
Pd       6.10718542       8.10876919       1.50000000  F       0.00000000       0.00000000       0.00000000
Pd       0.00677905       8.11002592       7.65695851  T       0.00000000       0.00000000       0.00000000
Pd       5.81538491       2.70619665      10.80357438  T       0.00000000       0.00000000       0.00000000
Pd       1.54508720       5.41869743       9.13826715  T       0.00000000       0.00000000       0.00000000
Pd       7.64447778       0.01502489       9.17675761  T       0.00000000       0.00000000       0.00000000
Pd       6.11702422       2.70917571       7.66523342  T       0.00000000       0.00000000       0.00000000
Pd      12.30928524       8.13483709      10.83990038  T       0.00000000       0.00000000       0.00000000
Pd       6.10718636       2.70292272       4.56515365  F       0.00000000       0.00000000       0.00000000
Pd       3.06353628       8.10904675       7.66118782  T       0.00000000       0.00000000       0.00000000
Pd       0.00000286       8.10876728       4.56515590  F       0.00000000       0.00000000       0.00000000
Pd       4.60232797       5.41528327       9.15866390  T       0.00000000       0.00000000       0.00000000
Pd       9.16077813       2.70292306       1.50000000  F       0.00000000       0.00000000       0.00000000
Pd       3.05559623       8.12256612      10.84472006  T       0.00000000       0.00000000       0.00000000
Pd       0.00000000       8.10876919       1.50000000  F       0.00000000       0.00000000       0.00000000
Pd       9.46783112       8.23075593      10.83027468  T       0.00000000       0.00000000       0.00000000
Pd       1.52679635       0.00000000       3.02679635  F       0.00000000       0.00000000       0.00000000
Pd       1.52679635       5.40584612       3.02679635  F       0.00000000       0.00000000       0.00000000
Pd      10.68757448       0.00000000       3.02679635  F       0.00000000       0.00000000       0.00000000
Pd      10.70944199       5.42569919       9.15407192  T       0.00000000       0.00000000       0.00000000
Pd       9.16077751       2.70292195       4.56515514  F       0.00000000       0.00000000       0.00000000
Pd      10.68757769      10.81169125       6.09434037  F       0.00000000       0.00000000       0.00000000
Pd       9.16077986       8.10876364       4.56515811  F       0.00000000       0.00000000       0.00000000
Pd       1.52679695      10.81169175       6.09434358  F       0.00000000       0.00000000       0.00000000
Pd       9.15769688       8.10625391       7.66907103  T       0.00000000       0.00000000       0.00000000
Pd       9.16421634       2.70708703       7.66017273  T       0.00000000       0.00000000       0.00000000
Pd      10.70439993       0.02027804       9.08978687  T       0.00000000       0.00000000       0.00000000
Pd       0.00000037       2.70292295       4.56515782  F       0.00000000       0.00000000       0.00000000
Pd       1.54152837      10.81563933       9.13451946  T       0.00000000       0.00000000       0.00000000
Pd       9.41399872       2.77409420      10.79974790  T       0.00000000       0.00000000       0.00000000
Pd       5.92497483       8.13241692      10.82061766  T       0.00000000       0.00000000       0.00000000
Pd      12.23395769       2.71036239       7.65422871  T       0.00000000       0.00000000       0.00000000
Pd      10.68757879       5.40584476       6.09434230  F       0.00000000       0.00000000       0.00000000
Pd       9.16077813       8.10876919       1.50000000  F       0.00000000       0.00000000       0.00000000
Pd      10.68757448       5.40584612       3.02679635  F       0.00000000       0.00000000       0.00000000
Pd      12.22477327       2.73404221      10.83700814  T       0.00000000       0.00000000       0.00000000
Pd       4.59024107      10.81623671       9.15849067  T       0.00000000       0.00000000       0.00000000
Pd       7.63398212       5.40584800       6.09434442  F       0.00000000       0.00000000       0.00000000
Pd       7.66288456       5.41426539       9.19015956  T       0.00000000       0.00000000       0.00000000
Pd       4.58038906       0.00000000       3.02679635  F       0.00000000       0.00000000       0.00000000
Pd       0.00000000       2.70292306       1.50000000  F       0.00000000       0.00000000       0.00000000
O        9.49701611       1.58367756      12.35191913  T       0.00000000       0.00000000       0.00000000
C       10.35920601       0.49043586      12.42869845  T       0.00000000       0.00000000       0.00000000
H       10.43100456       0.16803164      13.48585039  T       0.00000000       0.00000000       0.00000000
H        9.99510467      -0.39241257      11.81769964  T       0.00000000       0.00000000       0.00000000
H       11.39913028       0.70430059      12.05545157  T       0.00000000       0.00000000       0.00000000
