       N       E                     dE             d eps       ncg     rms          rms(c)
DAV:   1     0.500926184466E+03    0.50093E+03   -0.30117E+04  6744   0.197E+03
DAV:   2     0.152136114614E+01   -0.49940E+03   -0.48280E+03  7364   0.535E+02
DAV:   3    -0.240494075598E+02   -0.25571E+02   -0.25220E+02  7348   0.121E+02
DAV:   4    -0.243672708207E+02   -0.31786E+00   -0.31763E+00  7348   0.148E+01
DAV:   5    -0.243704692840E+02   -0.31985E-02   -0.31982E-02  7356   0.153E+00    0.176E+01
DAV:   6    -0.227509988428E+02    0.16195E+01   -0.15544E+01  7028   0.357E+01    0.713E+00
DAV:   7    -0.221934954513E+02    0.55750E+00   -0.25353E+00  7020   0.173E+01    0.367E+00
DAV:   8    -0.222101615511E+02   -0.16666E-01   -0.41093E-01  7092   0.411E+00    0.150E+00
DAV:   9    -0.222049274247E+02    0.52341E-02   -0.23975E-02  7340   0.140E+00    0.442E-01
DAV:  10    -0.222062577660E+02   -0.13303E-02   -0.26255E-03  7128   0.426E-01    0.177E-01
DAV:  11    -0.222064403362E+02   -0.18257E-03   -0.35893E-04  7356   0.127E-01    0.870E-02
DAV:  12    -0.222064506256E+02   -0.10289E-04   -0.52529E-05  7172   0.538E-02    0.209E-02
DAV:  13    -0.222064606357E+02   -0.10010E-04   -0.13216E-05  7208   0.258E-02    0.844E-03
DAV:  14    -0.222064620455E+02   -0.14098E-05   -0.17171E-06  5092   0.103E-02    0.334E-03
DAV:  15    -0.222064622746E+02   -0.22908E-06   -0.55900E-07  4280   0.600E-03
   1 F= -.23450186E+02 E0= -.23449478E+02  d E =-.141488E-02  mag=    -0.0000
