 vasp.6.4.3 19Mar24 (build Nov 27 2025 15:18:09) complex                         
 executed on              LinuxNV date 2026.06.04  16:41:42
 running    4 mpi-ranks, with    1 threads/rank, on    1 nodes
 distrk:  each k-point on    4 cores,    1 groups
 distr:  one band on NCORE=   1 cores,    4 groups
 OpenACC runtime initialized ...    0 GPUs detected


--------------------------------------------------------------------------------------------------------


 INCAR:
   SYSTEM = pddmc
   ENCUT = 600
   PREC = Accurate
   LASPH = .TRUE.
   ADDGRID = .TRUE.
   ISPIN = 2
   IVDW = 12
   EDIFF = 1e-06
   NELM = 200
   NELMIN = 5
   ALGO = Normal
   NCORE = 1
   LREAL = .FALSE.
   LWAVE = .FALSE.
   LCHARG = .FALSE.
   LORBIT = 11
   ISYM = 2
   IBRION = -1
   NSW = 0
   ISIF = 0
   ISMEAR = 0
   SIGMA = 0.05
   EDIFFG = -0.01

 POTCAR:    PAW_PBE Pd_pv 28Jan2005               
 POTCAR:    PAW_PBE O 08Apr2002                   
 -----------------------------------------------------------------------------
|                                                                             |
|           W    W    AA    RRRRR   N    N  II  N    N   GGGG   !!!           |
|           W    W   A  A   R    R  NN   N  II  NN   N  G    G  !!!           |
|           W    W  A    A  R    R  N N  N  II  N N  N  G       !!!           |
|           W WW W  AAAAAA  RRRRR   N  N N  II  N  N N  G  GGG   !            |
|           WW  WW  A    A  R   R   N   NN  II  N   NN  G    G                |
|           W    W  A    A  R    R  N    N  II  N    N   GGGG   !!!           |
|                                                                             |
|     You use a magnetic or noncollinear calculation, but did not specify     |
|     the initial magnetic moment with the MAGMOM tag. Note that a            |
|     default of 1 will be used for all atoms. This ferromagnetic setup       |
|     may break the symmetry of the crystal, in particular it may rule        |
|     out finding an antiferromagnetic solution. Thence, we recommend         |
|     setting the initial magnetic moment manually or verifying carefully     |
|     that this magnetic setup is desired.                                    |
|                                                                             |
 -----------------------------------------------------------------------------

 POTCAR:    PAW_PBE Pd_pv 28Jan2005               
   SHA256 =  3ce661545bbde58da9a95410dea32907db2844916708bcd35bbe03ee66324d7f Pd_pv/POTCAR          
   COPYR  = (c) Copyright 28Jan2005 Georg Kresse                                                    
   COPYR  = This file is part of the software VASP. Any use, copying, and all other rights are regul
   COPYR  = If you do not have a valid VASP license, you may not use, copy or distribute this file. 
   VRHFIN =Pd: 4p5s4d                                                                               
   LEXCH  = PE                                                                                      
   EATOM  =  2621.5550 eV,  192.6789 Ry                                                             
                                                                                                    
   TITEL  = PAW_PBE Pd_pv 28Jan2005                                                                 
   LULTRA =        F    use ultrasoft PP ?                                                          
   IUNSCR =        1    unscreen: 0-lin 1-nonlin 2-no                                               
   RPACOR =    2.250    partial core radius                                                         
   POMASS =  106.420; ZVAL   =   16.000    mass and valenz                                          
   RCORE  =    2.400    outmost cutoff radius                                                       
   RWIGS  =    2.300; RWIGS  =    1.217    wigner-seitz radius (au A)                               
   ENMAX  =  250.925; ENMIN  =  188.194 eV                                                          
   ICORE  =        3    local potential                                                             
   LCOR   =        T    correct aug charges                                                         
   LPAW   =        T    paw PP                                                                      
   EAUG   =  473.067                                                                                
   DEXC   =    0.000                                                                                
   RMAX   =    2.449    core radius for proj-oper                                                   
   RAUG   =    1.300    factor for augmentation sphere                                              
   RDEP   =    2.405    radius for radial grids                                                     
   RDEPT  =    1.966    core radius for aug-charge                                                  
                                                                                                    
   Atomic configuration                                                                             
   11 entries                                                                                       
     n  l   j            E        occ.                                                              
     1  0  0.50    -24164.6632   2.0000                                                             
     2  0  0.50     -3530.9218   2.0000                                                             
     2  1  1.50     -3165.6822   6.0000                                                             
     3  0  0.50      -639.4578   2.0000                                                             
     3  1  1.50      -519.4532   6.0000                                                             
     3  2  2.50      -328.9758  10.0000                                                             
     4  0  0.50       -88.7014   2.0000                                                             
     4  1  1.50       -54.4541   6.0000                                                             
     4  2  2.50        -6.6878   9.0000                                                             
     5  0  0.50        -4.3543   1.0000                                                             
     4  3  2.50        -1.3606   0.0000                                                             
   Description                                                                                      
     l       E           TYP  RCUT    TYP  RCUT                                                     
     1    -54.4540524     23  2.100                                                                 
     1      4.0817478     23  2.100                                                                 
     2     -6.6878326     23  2.400                                                                 
     2     -4.0817478     23  2.400                                                                 
     0     -4.3542962     23  2.400                                                                 
     0     13.6058260     23  2.400                                                                 
     3     -5.4423304     23  2.400                                                                 
  local pseudopotential read in
  partial core-charges read in
  partial kinetic energy density read in
  atomic valenz-charges read in
  non local Contribution for L=            1  read in
    real space projection operators read in
  non local Contribution for L=            1  read in
    real space projection operators read in
  non local Contribution for L=            2  read in
    real space projection operators read in
  non local Contribution for L=            2  read in
    real space projection operators read in
  non local Contribution for L=            0  read in
    real space projection operators read in
  non local Contribution for L=            0  read in
    real space projection operators read in
    PAW grid and wavefunctions read in
 
   number of l-projection  operators is LMAX  =            6
   number of lm-projection operators is LMMAX =           18
 
 POTCAR:    PAW_PBE O 08Apr2002                   
   SHA256 =  818f92134a0a090dccd8ba1447fa70422a3b330e708bb4f08108d8ae51209ddf O/POTCAR              
   COPYR  = (c) Copyright 08Apr2002 Georg Kresse                                                    
   COPYR  = This file is part of the software VASP. Any use, copying, and all other rights are regul
   COPYR  = If you do not have a valid VASP license, you may not use, copy or distribute this file. 
   VRHFIN =O: s2p4                                                                                  
   LEXCH  = PE                                                                                      
   EATOM  =   432.3788 eV,   31.7789 Ry                                                             
                                                                                                    
   TITEL  = PAW_PBE O 08Apr2002                                                                     
   LULTRA =        F    use ultrasoft PP ?                                                          
   IUNSCR =        1    unscreen: 0-lin 1-nonlin 2-no                                               
   RPACOR =    1.200    partial core radius                                                         
   POMASS =   16.000; ZVAL   =    6.000    mass and valenz                                          
   RCORE  =    1.520    outmost cutoff radius                                                       
   RWIGS  =    1.550; RWIGS  =    0.820    wigner-seitz radius (au A)                               
   ENMAX  =  400.000; ENMIN  =  300.000 eV                                                          
   ICORE  =        2    local potential                                                             
   LCOR   =        T    correct aug charges                                                         
   LPAW   =        T    paw PP                                                                      
   EAUG   =  605.392                                                                                
   DEXC   =    0.000                                                                                
   RMAX   =    1.553    core radius for proj-oper                                                   
   RAUG   =    1.300    factor for augmentation sphere                                              
   RDEP   =    1.550    radius for radial grids                                                     
   RDEPT  =    1.329    core radius for aug-charge                                                  
                                                                                                    
   Atomic configuration                                                                             
    4 entries                                                                                       
     n  l   j            E        occ.                                                              
     1  0  0.50      -514.6923   2.0000                                                             
     2  0  0.50       -23.9615   2.0000                                                             
     2  1  0.50        -9.0305   4.0000                                                             
     3  2  1.50        -9.5241   0.0000                                                             
   Description                                                                                      
     l       E           TYP  RCUT    TYP  RCUT                                                     
     0    -23.9615318     23  1.200                                                                 
     0     -9.5240782     23  1.200                                                                 
     1     -9.0304911     23  1.520                                                                 
     1      8.1634956     23  1.520                                                                 
     2     -9.5240782      7  1.500                                                                 
  local pseudopotential read in
  partial core-charges read in
  partial kinetic energy density read in
  kinetic energy density of atom read in
  atomic valenz-charges read in
  non local Contribution for L=            0  read in
    real space projection operators read in
  non local Contribution for L=            0  read in
    real space projection operators read in
  non local Contribution for L=            1  read in
    real space projection operators read in
  non local Contribution for L=            1  read in
    real space projection operators read in
    PAW grid and wavefunctions read in
 
   number of l-projection  operators is LMAX  =            4
   number of lm-projection operators is LMMAX =            8
 
  PAW_PBE Pd_pv 28Jan2005               :
 energy of atom  1       EATOM=-2621.5550
 kinetic energy error for atom=    0.0046 (will be added to EATOM!!)
  PAW_PBE O 08Apr2002                   :
 energy of atom  2       EATOM= -432.3788
 kinetic energy error for atom=    0.0168 (will be added to EATOM!!)
 
 
 POSCAR: Pd O
  positions in cartesian coordinates
  No initial velocities read in
 IVDW         = 12
 VDW_S6       =    1.0000
 VDW_S8       =    0.7875
 VDW_A1       =    0.4289
 VDW_A2       =    4.4407
 VDW_RADIUS   =   50.2022 A
 VDW_CNRADIUS =   21.1671 A


 exchange-correlation table for PE
   RHO(1)=    0.500       N(1)  =     2000
   RHO(2)=  100.500       N(2)  =     4000
 


--------------------------------------------------------------------------------------------------------


 ion  position               nearest neighbor table
   1  0.500  0.000  0.500-   3 2.03   4 2.03   3 2.03   4 2.03
   2  0.000  0.500  0.000-   3 2.03   4 2.03   3 2.03   4 2.03
   3  0.000  0.000  0.750-   1 2.03   2 2.03   2 2.03   1 2.03
   4  0.000  0.000  0.250-   1 2.03   2 2.03   2 2.03   1 2.03
 
  LATTYP: Found a simple tetragonal cell.
 ALAT       =     3.0536041100
 C/A-ratio  =     1.7589892457
  
  Lattice vectors:
  
 A1 = (   3.0536041100,   0.0000000000,   0.0000000000)
 A2 = (   0.0000000000,   3.0536041100,   0.0000000000)
 A3 = (   0.0000000000,   0.0000000000,   5.3712567900)


Analysis of symmetry for initial positions (statically):
=====================================================================
 Subroutine PRICEL returns:
 Original cell was already a primitive cell.
 

 Routine SETGRP: Setting up the symmetry group for a 
 simple tetragonal supercell.


 Subroutine GETGRP returns: Found 16 space group operations
 (whereof  8 operations were pure point group operations)
 out of a pool of 16 trial point group operations.


The static configuration has the point symmetry D_2h.
 The point group associated with its full space group is D_4h.


Analysis of symmetry for dynamics (positions and initial velocities):
=====================================================================
 Subroutine PRICEL returns:
 Original cell was already a primitive cell.
 

 Routine SETGRP: Setting up the symmetry group for a 
 simple tetragonal supercell.


 Subroutine GETGRP returns: Found 16 space group operations
 (whereof  8 operations were pure point group operations)
 out of a pool of 16 trial point group operations.


The dynamic configuration has the point symmetry D_2h.
 The point group associated with its full space group is D_4h.


Analysis of structural, dynamic, and magnetic symmetry:
=====================================================================
 Subroutine PRICEL returns:
 Original cell was already a primitive cell.
 

 Routine SETGRP: Setting up the symmetry group for a 
 simple tetragonal supercell.


 Subroutine GETGRP returns: Found 16 space group operations
 (whereof  8 operations were pure point group operations)
 out of a pool of 16 trial point group operations.


The overall configuration has the point symmetry D_2h.
 The point group associated with its full space group is D_4h.


 Subroutine INISYM returns: Found 16 space group operations
 (whereof  8 operations are pure point group operations),
 and found     1 'primitive' translations


----------------------------------------------------------------------------------------

                                     Primitive cell                                     

  volume of cell :      50.0843

  direct lattice vectors                    reciprocal lattice vectors
     3.053604110  0.000000000  0.000000000     0.327481875 -0.000000000  0.000000000
     0.000000000  3.053604110  0.000000000     0.000000000  0.327481875  0.000000000
     0.000000000  0.000000000  5.371256790    -0.000000000 -0.000000000  0.186176167

  length of vectors
     3.053604110  3.053604110  5.371256790     0.327481875  0.327481875  0.186176167

  position of ions in fractional coordinates (direct lattice)
     0.500000000  0.000000000  0.500000000
     0.000000000  0.500000000  0.000000000
     0.000000000  0.000000000  0.750000000
     0.000000000  0.000000000  0.250000000

  ion indices of the primitive-cell ions
   primitive index   ion index
                 1           1
                 2           2
                 3           3
                 4           4

----------------------------------------------------------------------------------------

 
 
 KPOINTS: Automatic mesh                          

Automatic generation of k-mesh.
 Grid dimensions read from file:
 generate k-points for:    8    8    6

 Generating k-lattice:

  Cartesian coordinates                     Fractional coordinates (reciprocal lattice)
     0.040935234 -0.000000000  0.000000000     0.125000000  0.000000000  0.000000000
     0.000000000  0.040935234  0.000000000     0.000000000  0.125000000  0.000000000
    -0.000000000 -0.000000000  0.031029361     0.000000000  0.000000000  0.166666667

  Length of vectors
     0.040935234  0.040935234  0.031029361

  Shift w.r.t. Gamma in fractional coordinates (k-lattice)
     0.000000000  0.000000000  0.000000000

 
 Subroutine IBZKPT returns following result:
 ===========================================
 
 Found     60 irreducible k-points:
 
 Following reciprocal coordinates:
            Coordinates               Weight
  0.000000  0.000000  0.000000      1.000000
  0.125000  0.000000  0.000000      4.000000
  0.250000  0.000000  0.000000      4.000000
  0.375000  0.000000  0.000000      4.000000
  0.500000  0.000000  0.000000      2.000000
  0.125000  0.125000  0.000000      4.000000
  0.250000  0.125000  0.000000      8.000000
  0.375000  0.125000  0.000000      8.000000
  0.500000  0.125000  0.000000      4.000000
  0.250000  0.250000  0.000000      4.000000
  0.375000  0.250000  0.000000      8.000000
  0.500000  0.250000  0.000000      4.000000
  0.375000  0.375000  0.000000      4.000000
  0.500000  0.375000  0.000000      4.000000
  0.500000  0.500000  0.000000      1.000000
  0.000000  0.000000  0.166667      2.000000
  0.125000  0.000000  0.166667      8.000000
  0.250000  0.000000  0.166667      8.000000
  0.375000  0.000000  0.166667      8.000000
  0.500000  0.000000  0.166667      4.000000
  0.125000  0.125000  0.166667      8.000000
  0.250000  0.125000  0.166667     16.000000
  0.375000  0.125000  0.166667     16.000000
  0.500000  0.125000  0.166667      8.000000
  0.250000  0.250000  0.166667      8.000000
  0.375000  0.250000  0.166667     16.000000
  0.500000  0.250000  0.166667      8.000000
  0.375000  0.375000  0.166667      8.000000
  0.500000  0.375000  0.166667      8.000000
  0.500000  0.500000  0.166667      2.000000
  0.000000  0.000000  0.333333      2.000000
  0.125000  0.000000  0.333333      8.000000
  0.250000  0.000000  0.333333      8.000000
  0.375000  0.000000  0.333333      8.000000
  0.500000  0.000000  0.333333      4.000000
  0.125000  0.125000  0.333333      8.000000
  0.250000  0.125000  0.333333     16.000000
  0.375000  0.125000  0.333333     16.000000
  0.500000  0.125000  0.333333      8.000000
  0.250000  0.250000  0.333333      8.000000
  0.375000  0.250000  0.333333     16.000000
  0.500000  0.250000  0.333333      8.000000
  0.375000  0.375000  0.333333      8.000000
  0.500000  0.375000  0.333333      8.000000
  0.500000  0.500000  0.333333      2.000000
  0.000000  0.000000  0.500000      1.000000
  0.125000  0.000000  0.500000      4.000000
  0.250000  0.000000  0.500000      4.000000
  0.375000  0.000000  0.500000      4.000000
  0.500000  0.000000  0.500000      2.000000
  0.125000  0.125000  0.500000      4.000000
  0.250000  0.125000  0.500000      8.000000
  0.375000  0.125000  0.500000      8.000000
  0.500000  0.125000  0.500000      4.000000
  0.250000  0.250000  0.500000      4.000000
  0.375000  0.250000  0.500000      8.000000
  0.500000  0.250000  0.500000      4.000000
  0.375000  0.375000  0.500000      4.000000
  0.500000  0.375000  0.500000      4.000000
  0.500000  0.500000  0.500000      1.000000
 
 Following cartesian coordinates:
            Coordinates               Weight
  0.000000  0.000000  0.000000      1.000000
  0.040935  0.000000  0.000000      4.000000
  0.081870  0.000000  0.000000      4.000000
  0.122806  0.000000  0.000000      4.000000
  0.163741  0.000000  0.000000      2.000000
  0.040935  0.040935  0.000000      4.000000
  0.081870  0.040935  0.000000      8.000000
  0.122806  0.040935  0.000000      8.000000
  0.163741  0.040935  0.000000      4.000000
  0.081870  0.081870  0.000000      4.000000
  0.122806  0.081870  0.000000      8.000000
  0.163741  0.081870  0.000000      4.000000
  0.122806  0.122806  0.000000      4.000000
  0.163741  0.122806  0.000000      4.000000
  0.163741  0.163741  0.000000      1.000000
  0.000000  0.000000  0.031029      2.000000
  0.040935  0.000000  0.031029      8.000000
  0.081870  0.000000  0.031029      8.000000
  0.122806  0.000000  0.031029      8.000000
  0.163741  0.000000  0.031029      4.000000
  0.040935  0.040935  0.031029      8.000000
  0.081870  0.040935  0.031029     16.000000
  0.122806  0.040935  0.031029     16.000000
  0.163741  0.040935  0.031029      8.000000
  0.081870  0.081870  0.031029      8.000000
  0.122806  0.081870  0.031029     16.000000
  0.163741  0.081870  0.031029      8.000000
  0.122806  0.122806  0.031029      8.000000
  0.163741  0.122806  0.031029      8.000000
  0.163741  0.163741  0.031029      2.000000
  0.000000  0.000000  0.062059      2.000000
  0.040935  0.000000  0.062059      8.000000
  0.081870  0.000000  0.062059      8.000000
  0.122806  0.000000  0.062059      8.000000
  0.163741  0.000000  0.062059      4.000000
  0.040935  0.040935  0.062059      8.000000
  0.081870  0.040935  0.062059     16.000000
  0.122806  0.040935  0.062059     16.000000
  0.163741  0.040935  0.062059      8.000000
  0.081870  0.081870  0.062059      8.000000
  0.122806  0.081870  0.062059     16.000000
  0.163741  0.081870  0.062059      8.000000
  0.122806  0.122806  0.062059      8.000000
  0.163741  0.122806  0.062059      8.000000
  0.163741  0.163741  0.062059      2.000000
  0.000000  0.000000  0.093088      1.000000
  0.040935  0.000000  0.093088      4.000000
  0.081870  0.000000  0.093088      4.000000
  0.122806  0.000000  0.093088      4.000000
  0.163741  0.000000  0.093088      2.000000
  0.040935  0.040935  0.093088      4.000000
  0.081870  0.040935  0.093088      8.000000
  0.122806  0.040935  0.093088      8.000000
  0.163741  0.040935  0.093088      4.000000
  0.081870  0.081870  0.093088      4.000000
  0.122806  0.081870  0.093088      8.000000
  0.163741  0.081870  0.093088      4.000000
  0.122806  0.122806  0.093088      4.000000
  0.163741  0.122806  0.093088      4.000000
  0.163741  0.163741  0.093088      1.000000
 


--------------------------------------------------------------------------------------------------------




 Dimension of arrays:
   k-points           NKPTS =     60   k-points in BZ     NKDIM =     60   number of bands    NBANDS=     28
   number of dos      NEDOS =    301   number of ions     NIONS =      4
   non local maximal  LDIM  =      6   non local SUM 2l+1 LMDIM =     18
   total plane-waves  NPLWV =  27648
   max r-space proj   IRMAX =      1   max aug-charges    IRDMAX= 176981
   dimension x,y,z NGX =    24 NGY =   24 NGZ =   48
   dimension x,y,z NGXF=    48 NGYF=   48 NGZF=   96
   support grid    NGXF=    96 NGYF=   96 NGZF=  192
   ions per type =               2   2
   NGX,Y,Z   is equivalent  to a cutoff of  13.07, 13.07, 14.86 a.u.
   NGXF,Y,Z  is equivalent  to a cutoff of  26.13, 26.13, 29.71 a.u.

 SYSTEM =  pddmc                                   
 POSCAR =  Pd O                                    

 Startparameter for this run:
   NWRITE =      2    write-flag & timer
   PREC   = accura    normal or accurate (medium, high low for compatibility)
   ISTART =      0    job   : 0-new  1-cont  2-samecut
   ICHARG =      2    charge: 1-file 2-atom 10-const
   ISPIN  =      2    spin polarized calculation?
   LNONCOLLINEAR =      F non collinear calculations
   LSORBIT =      F    spin-orbit coupling
   INIWAV =      1    electr: 0-lowe 1-rand  2-diag
   LASPH  =      T    aspherical Exc in radial PAW
 Electronic Relaxation 1
   ENCUT  =  600.0 eV  44.10 Ry    6.64 a.u.   6.10  6.10 10.73*2*pi/ulx,y,z
   ENINI  =  600.0     initial cutoff
   ENAUG  =  605.4 eV  augmentation charge cutoff
   NELM   =    200;   NELMIN=  5; NELMDL= -5     # of ELM steps 
   EDIFF  = 0.1E-05   stopping-criterion for ELM
   LREAL  =      F    real-space projection
   NLSPLINE    = F    spline interpolate recip. space projectors
   LCOMPAT=      F    compatible to vasp.4.4
   GGA_COMPAT  = T    GGA compatible to vasp.4.4-vasp.4.6
   LMAXPAW     = -100 max onsite density
   LMAXMIX     =    2 max onsite mixed and CHGCAR
   VOSKOWN=      0    Vosko Wilk Nusair interpolation
   ROPT   =    0.00000   0.00000
 Ionic relaxation
   EDIFFG = -.1E-01   stopping-criterion for IOM
   NSW    =      0    number of steps for IOM
   NBLOCK =      1;   KBLOCK =      1    inner block; outer block 
   IBRION =     -1    ionic relax: 0-MD 1-quasi-New 2-CG
   NFREE  =      0    steps in history (QN), initial steepest desc. (CG)
   ISIF   =      0    stress and relaxation
   IWAVPR =     10    prediction:  0-non 1-charg 2-wave 3-comb
   ISYM   =      2    0-nonsym 1-usesym 2-fastsym
   LCORR  =      T    Harris-Foulkes like correction to forces

   POTIM  = 0.5000    time-step for ionic-motion
   TEIN   =    0.0    initial temperature
   TEBEG  =    0.0;   TEEND  =   0.0 temperature during run
   SMASS  =  -3.00    Nose mass-parameter (am)
   estimated Nose-frequenzy (Omega)   =  0.10E-29 period in steps = 0.13E+47 mass=  -0.213E-27a.u.
   SCALEE = 1.0000    scale energy and forces
   NPACO  =    256;   APACO  = 10.0  distance and # of slots for P.C.
   PSTRESS=    0.0 pullay stress

  Mass of Ions in am
   POMASS = 106.42 16.00
  Ionic Valenz
   ZVAL   =  16.00  6.00
  Atomic Wigner-Seitz radii
   RWIGS  =  -1.00 -1.00
  virtual crystal weights 
   VCA    =   1.00  1.00
   NELECT =      44.0000    total number of electrons
   NUPDOWN=      -1.0000    fix difference up-down

 DOS related values:
   EMIN   =  10.00;   EMAX   =-10.00  energy-range for DOS
   EFERMI =   0.00;   METHOD = LEGACY      
   ISMEAR =     0;   SIGMA  =   0.05  broadening in eV -4-tet -1-fermi 0-gaus

 Electronic relaxation 2 (details)
   IALGO  =     38    algorithm
   LDIAG  =      T    sub-space diagonalisation (order eigenvalues)
   LSUBROT=      F    optimize rotation matrix (better conditioning)
   TURBO    =      0    0=normal 1=particle mesh
   IRESTART =      0    0=no restart 2=restart with 2 vectors
   NREBOOT  =      0    no. of reboots
   NMIN     =      0    reboot dimension
   EREF     =   0.00    reference energy to select bands
   IMIX   =      4    mixing-type and parameters
     AMIX     =   0.40;   BMIX     =  1.00
     AMIX_MAG =   1.60;   BMIX_MAG =  1.00
     AMIN     =   0.10
     WC   =   100.;   INIMIX=   1;  MIXPRE=   1;  MAXMIX= -45

 Intra band minimization:
   WEIMIN = 0.0000     energy-eigenvalue tresh-hold
   EBREAK =  0.89E-08  absolut break condition
   DEPER  =   0.30     relativ break condition  

   TIME   =   0.40     timestep for ELM

  volume/ion in A,a.u.               =      12.52        84.50
  Fermi-wavevector in a.u.,A,eV,Ry     =   1.567925  2.962948 33.448407  2.458389
  Thomas-Fermi vector in A             =   2.670032
 
 Write flags
   LWAVE        =      F    write WAVECAR
   LDOWNSAMPLE  =      F    k-point downsampling of WAVECAR
   LCHARG       =      F    write CHGCAR
   LVTOT        =      F    write LOCPOT, total local potential
   LVHAR        =      F    write LOCPOT, Hartree potential only
   WRT_POTENTIAL= false  ! write potential to hdf5 file
   LELF         =      F    write electronic localiz. function (ELF)
   LORBIT       =     11    0 simple, 1 ext, 2 COOP (PROOUT), +10 PAW based schemes


 Dipole corrections
   LMONO      =      F    monopole corrections only (constant potential shift)
   LDIPOL     =      F    correct potential (dipole corrections)
   IDIPOL     =      0    1-x, 2-y, 3-z, 4-all directions 
   EPSILON    =  1.0000000 bulk dielectric constant
   LVACPOTAV  =      F  vacuum potentials using an averaging scheme for the charge density
   VACPOTFLAT =  0.1000000 required flatness to determine vacuum potential
 Exchange correlation treatment:
   GGA     = PE    functional components
   XC_C    = 1    coefficients multiplying the functional components
   LIBXC   =     F    Libxc                    
   VOSKOWN =     0    Vosko Wilk Nusair interpolation
   LHFCALC =     F    Hartree Fock is set to
   LHFONE  =     F    Hartree Fock one center treatment
   AEXX    =    0.0000 exact exchange contribution

 Parameters of functionals:
   PE:
     No parameter
 
 Van der Waals corrections
   IVDW    =    12    specifies the selected vdW correction

 Linear response parameters
   LEPSILON=     F    determine dielectric tensor
   LRPA    =     F    only Hartree local field effects (RPA)
   LNABLA  =     F    use nabla operator in PAW spheres
   LVEL    =     F    velocity operator in full k-point grid
   CSHIFT  =0.1000    complex shift for real part using Kramers Kronig
   OMEGAMAX=  -1.0    maximum frequency
   DEG_THRESHOLD= 0.2000000E-02 threshold for treating states as degnerate
   RTIME   =   -0.100 relaxation time in fs
  (WPLASMAI=    0.000 imaginary part of plasma frequency in eV, 0.658/RTIME)
   DFIELD  = 0.0000000 0.0000000 0.0000000 field for delta impulse in time
 
  Optional k-point grid parameters
   LKPOINTS_OPT  =     F    use optional k-point grid
   KPOINTS_OPT_MODE=     1    mode for optional k-point grid
 
 Orbital magnetization related:
   ORBITALMAG=     F  switch on orbital magnetization
   LCHIMAG   =     F  perturbation theory with respect to B field
   DQ        =  0.001000  dq finite difference perturbation B field
   LLRAUG    =     F  two centre corrections for induced B field
   LBONE     =     F  B-component reconstruction in AE one-centre
   LVGVCALC  =     T  calculate vGv susceptibility
   LVGVAPPL  =     F  apply vGv susceptibility instead of pGv for G=0

 Random number generation:
   RANDOM_GENERATOR = DEFAULT
   PCG_SEED         = not used


--------------------------------------------------------------------------------------------------------


 Static calculation
 charge density and potential will be updated during run
 spin polarized calculation
 Variant of blocked Davidson
 Davidson routine will perform the subspace rotation
 perform sub-space diagonalisation
    after iterative eigenvector-optimisation
 modified Broyden-mixing scheme, WC =      100.0
 initial mixing is a Kerker type mixing with AMIX =  0.4000 and BMIX =      1.0000
 Hartree-type preconditioning will be used
 using additional bands             6
 reciprocal scheme for non local part
 use partial core corrections
 calculate Harris-corrections to forces 
   (improved forces if not selfconsistent)
 use gradient corrections 
 use of overlap-Matrix (Vanderbilt PP)
 Gauss-broadening in eV      SIGMA  =   0.05


--------------------------------------------------------------------------------------------------------


  energy-cutoff  :      600.00
  volume of cell :       50.08
      direct lattice vectors                 reciprocal lattice vectors
     3.053604110  0.000000000  0.000000000     0.327481875 -0.000000000  0.000000000
     0.000000000  3.053604110  0.000000000     0.000000000  0.327481875  0.000000000
     0.000000000  0.000000000  5.371256790    -0.000000000 -0.000000000  0.186176167

  length of vectors
     3.053604110  3.053604110  5.371256790     0.327481875  0.327481875  0.186176167


 
 k-points in units of 2pi/SCALE and weight: Automatic mesh                          
   0.00000000  0.00000000  0.00000000       0.003
   0.04093523  0.00000000  0.00000000       0.010
   0.08187047  0.00000000  0.00000000       0.010
   0.12280570  0.00000000  0.00000000       0.010
   0.16374094  0.00000000  0.00000000       0.005
   0.04093523  0.04093523  0.00000000       0.010
   0.08187047  0.04093523  0.00000000       0.021
   0.12280570  0.04093523  0.00000000       0.021
   0.16374094  0.04093523  0.00000000       0.010
   0.08187047  0.08187047  0.00000000       0.010
   0.12280570  0.08187047  0.00000000       0.021
   0.16374094  0.08187047  0.00000000       0.010
   0.12280570  0.12280570  0.00000000       0.010
   0.16374094  0.12280570  0.00000000       0.010
   0.16374094  0.16374094  0.00000000       0.003
   0.00000000  0.00000000  0.03102936       0.005
   0.04093523  0.00000000  0.03102936       0.021
   0.08187047  0.00000000  0.03102936       0.021
   0.12280570  0.00000000  0.03102936       0.021
   0.16374094  0.00000000  0.03102936       0.010
   0.04093523  0.04093523  0.03102936       0.021
   0.08187047  0.04093523  0.03102936       0.042
   0.12280570  0.04093523  0.03102936       0.042
   0.16374094  0.04093523  0.03102936       0.021
   0.08187047  0.08187047  0.03102936       0.021
   0.12280570  0.08187047  0.03102936       0.042
   0.16374094  0.08187047  0.03102936       0.021
   0.12280570  0.12280570  0.03102936       0.021
   0.16374094  0.12280570  0.03102936       0.021
   0.16374094  0.16374094  0.03102936       0.005
   0.00000000  0.00000000  0.06205872       0.005
   0.04093523  0.00000000  0.06205872       0.021
   0.08187047  0.00000000  0.06205872       0.021
   0.12280570  0.00000000  0.06205872       0.021
   0.16374094  0.00000000  0.06205872       0.010
   0.04093523  0.04093523  0.06205872       0.021
   0.08187047  0.04093523  0.06205872       0.042
   0.12280570  0.04093523  0.06205872       0.042
   0.16374094  0.04093523  0.06205872       0.021
   0.08187047  0.08187047  0.06205872       0.021
   0.12280570  0.08187047  0.06205872       0.042
   0.16374094  0.08187047  0.06205872       0.021
   0.12280570  0.12280570  0.06205872       0.021
   0.16374094  0.12280570  0.06205872       0.021
   0.16374094  0.16374094  0.06205872       0.005
   0.00000000  0.00000000  0.09308808       0.003
   0.04093523  0.00000000  0.09308808       0.010
   0.08187047  0.00000000  0.09308808       0.010
   0.12280570  0.00000000  0.09308808       0.010
   0.16374094  0.00000000  0.09308808       0.005
   0.04093523  0.04093523  0.09308808       0.010
   0.08187047  0.04093523  0.09308808       0.021
   0.12280570  0.04093523  0.09308808       0.021
   0.16374094  0.04093523  0.09308808       0.010
   0.08187047  0.08187047  0.09308808       0.010
   0.12280570  0.08187047  0.09308808       0.021
   0.16374094  0.08187047  0.09308808       0.010
   0.12280570  0.12280570  0.09308808       0.010
   0.16374094  0.12280570  0.09308808       0.010
   0.16374094  0.16374094  0.09308808       0.003
 
 k-points in reciprocal lattice and weights: Automatic mesh                          
   0.00000000  0.00000000  0.00000000       0.003
   0.12500000  0.00000000  0.00000000       0.010
   0.25000000  0.00000000  0.00000000       0.010
   0.37500000  0.00000000  0.00000000       0.010
   0.50000000  0.00000000  0.00000000       0.005
   0.12500000  0.12500000  0.00000000       0.010
   0.25000000  0.12500000  0.00000000       0.021
   0.37500000  0.12500000  0.00000000       0.021
   0.50000000  0.12500000  0.00000000       0.010
   0.25000000  0.25000000  0.00000000       0.010
   0.37500000  0.25000000  0.00000000       0.021
   0.50000000  0.25000000  0.00000000       0.010
   0.37500000  0.37500000  0.00000000       0.010
   0.50000000  0.37500000  0.00000000       0.010
   0.50000000  0.50000000  0.00000000       0.003
   0.00000000  0.00000000  0.16666667       0.005
   0.12500000  0.00000000  0.16666667       0.021
   0.25000000  0.00000000  0.16666667       0.021
   0.37500000  0.00000000  0.16666667       0.021
   0.50000000  0.00000000  0.16666667       0.010
   0.12500000  0.12500000  0.16666667       0.021
   0.25000000  0.12500000  0.16666667       0.042
   0.37500000  0.12500000  0.16666667       0.042
   0.50000000  0.12500000  0.16666667       0.021
   0.25000000  0.25000000  0.16666667       0.021
   0.37500000  0.25000000  0.16666667       0.042
   0.50000000  0.25000000  0.16666667       0.021
   0.37500000  0.37500000  0.16666667       0.021
   0.50000000  0.37500000  0.16666667       0.021
   0.50000000  0.50000000  0.16666667       0.005
   0.00000000  0.00000000  0.33333333       0.005
   0.12500000  0.00000000  0.33333333       0.021
   0.25000000  0.00000000  0.33333333       0.021
   0.37500000  0.00000000  0.33333333       0.021
   0.50000000  0.00000000  0.33333333       0.010
   0.12500000  0.12500000  0.33333333       0.021
   0.25000000  0.12500000  0.33333333       0.042
   0.37500000  0.12500000  0.33333333       0.042
   0.50000000  0.12500000  0.33333333       0.021
   0.25000000  0.25000000  0.33333333       0.021
   0.37500000  0.25000000  0.33333333       0.042
   0.50000000  0.25000000  0.33333333       0.021
   0.37500000  0.37500000  0.33333333       0.021
   0.50000000  0.37500000  0.33333333       0.021
   0.50000000  0.50000000  0.33333333       0.005
   0.00000000  0.00000000  0.50000000       0.003
   0.12500000  0.00000000  0.50000000       0.010
   0.25000000  0.00000000  0.50000000       0.010
   0.37500000  0.00000000  0.50000000       0.010
   0.50000000  0.00000000  0.50000000       0.005
   0.12500000  0.12500000  0.50000000       0.010
   0.25000000  0.12500000  0.50000000       0.021
   0.37500000  0.12500000  0.50000000       0.021
   0.50000000  0.12500000  0.50000000       0.010
   0.25000000  0.25000000  0.50000000       0.010
   0.37500000  0.25000000  0.50000000       0.021
   0.50000000  0.25000000  0.50000000       0.010
   0.37500000  0.37500000  0.50000000       0.010
   0.50000000  0.37500000  0.50000000       0.010
   0.50000000  0.50000000  0.50000000       0.003
 
 position of ions in fractional coordinates (direct lattice) 
   0.50000000  0.00000000  0.50000000
   0.00000000  0.50000000  0.00000000
   0.00000000  0.00000000  0.75000000
   0.00000000  0.00000000  0.25000000
 
 position of ions in cartesian coordinates  (Angst):
   1.52680206  0.00000000  2.68562840
   0.00000000  1.52680206  0.00000000
   0.00000000  0.00000000  4.02844259
   0.00000000  0.00000000  1.34281420
 


--------------------------------------------------------------------------------------------------------


 k-point     1 :   0.0000 0.0000 0.0000  plane waves:    1677
 k-point     2 :   0.1250 0.0000 0.0000  plane waves:    1668
 k-point     3 :   0.2500 0.0000 0.0000  plane waves:    1666
 k-point     4 :   0.3750 0.0000 0.0000  plane waves:    1672
 k-point     5 :   0.5000 0.0000 0.0000  plane waves:    1684
 k-point     6 :   0.1250 0.1250 0.0000  plane waves:    1665
 k-point     7 :   0.2500 0.1250 0.0000  plane waves:    1659
 k-point     8 :   0.3750 0.1250 0.0000  plane waves:    1662
 k-point     9 :   0.5000 0.1250 0.0000  plane waves:    1672
 k-point    10 :   0.2500 0.2500 0.0000  plane waves:    1667
 k-point    11 :   0.3750 0.2500 0.0000  plane waves:    1683
 k-point    12 :   0.5000 0.2500 0.0000  plane waves:    1680
 k-point    13 :   0.3750 0.3750 0.0000  plane waves:    1672
 k-point    14 :   0.5000 0.3750 0.0000  plane waves:    1678
 k-point    15 :   0.5000 0.5000 0.0000  plane waves:    1672
 k-point    16 :   0.0000 0.0000 0.1667  plane waves:    1665
 k-point    17 :   0.1250 0.0000 0.1667  plane waves:    1669
 k-point    18 :   0.2500 0.0000 0.1667  plane waves:    1664
 k-point    19 :   0.3750 0.0000 0.1667  plane waves:    1661
 k-point    20 :   0.5000 0.0000 0.1667  plane waves:    1660
 k-point    21 :   0.1250 0.1250 0.1667  plane waves:    1669
 k-point    22 :   0.2500 0.1250 0.1667  plane waves:    1669
 k-point    23 :   0.3750 0.1250 0.1667  plane waves:    1663
 k-point    24 :   0.5000 0.1250 0.1667  plane waves:    1674
 k-point    25 :   0.2500 0.2500 0.1667  plane waves:    1673
 k-point    26 :   0.3750 0.2500 0.1667  plane waves:    1678
 k-point    27 :   0.5000 0.2500 0.1667  plane waves:    1680
 k-point    28 :   0.3750 0.3750 0.1667  plane waves:    1686
 k-point    29 :   0.5000 0.3750 0.1667  plane waves:    1682
 k-point    30 :   0.5000 0.5000 0.1667  plane waves:    1668
 k-point    31 :   0.0000 0.0000 0.3333  plane waves:    1662
 k-point    32 :   0.1250 0.0000 0.3333  plane waves:    1666
 k-point    33 :   0.2500 0.0000 0.3333  plane waves:    1668
 k-point    34 :   0.3750 0.0000 0.3333  plane waves:    1662
 k-point    35 :   0.5000 0.0000 0.3333  plane waves:    1652
 k-point    36 :   0.1250 0.1250 0.3333  plane waves:    1667
 k-point    37 :   0.2500 0.1250 0.3333  plane waves:    1663
 k-point    38 :   0.3750 0.1250 0.3333  plane waves:    1675
 k-point    39 :   0.5000 0.1250 0.3333  plane waves:    1670
 k-point    40 :   0.2500 0.2500 0.3333  plane waves:    1675
 k-point    41 :   0.3750 0.2500 0.3333  plane waves:    1674
 k-point    42 :   0.5000 0.2500 0.3333  plane waves:    1680
 k-point    43 :   0.3750 0.3750 0.3333  plane waves:    1676
 k-point    44 :   0.5000 0.3750 0.3333  plane waves:    1680
 k-point    45 :   0.5000 0.5000 0.3333  plane waves:    1708
 k-point    46 :   0.0000 0.0000 0.5000  plane waves:    1670
 k-point    47 :   0.1250 0.0000 0.5000  plane waves:    1660
 k-point    48 :   0.2500 0.0000 0.5000  plane waves:    1654
 k-point    49 :   0.3750 0.0000 0.5000  plane waves:    1682
 k-point    50 :   0.5000 0.0000 0.5000  plane waves:    1672
 k-point    51 :   0.1250 0.1250 0.5000  plane waves:    1660
 k-point    52 :   0.2500 0.1250 0.5000  plane waves:    1660
 k-point    53 :   0.3750 0.1250 0.5000  plane waves:    1670
 k-point    54 :   0.5000 0.1250 0.5000  plane waves:    1672
 k-point    55 :   0.2500 0.2500 0.5000  plane waves:    1674
 k-point    56 :   0.3750 0.2500 0.5000  plane waves:    1682
 k-point    57 :   0.5000 0.2500 0.5000  plane waves:    1676
 k-point    58 :   0.3750 0.3750 0.5000  plane waves:    1682
 k-point    59 :   0.5000 0.3750 0.5000  plane waves:    1676
 k-point    60 :   0.5000 0.5000 0.5000  plane waves:    1696

 maximum and minimum number of plane-waves per node :      1708     1652

 maximum number of plane-waves:      1708
 maximum index in each direction: 
   IXMAX=    6   IYMAX=    6   IZMAX=   10
   IXMIN=   -6   IYMIN=   -6   IZMIN=  -11


 serial   3D FFT for wavefunctions
 parallel 3D FFT for charge:
    minimum data exchange during FFTs selected (reduces bandwidth)


 total amount of memory used by VASP MPI-rank0    98379. kBytes
=======================================================================

   base      :      30000. kBytes
   nonl-proj :      29623. kBytes
   fftplans  :       8251. kBytes
   grid      :       6727. kBytes
   one-center:        124. kBytes
   wavefun   :      23654. kBytes
 
     INWAV:  cpu time      0.0000: real time      0.0000
 Broyden mixing: mesh for mixing (old mesh)
   NGX = 13   NGY = 13   NGZ = 21
  (NGX  = 48   NGY  = 48   NGZ  = 96)
  gives a total of   3549 points

 initial charge density was supplied:
 charge density of overlapping atoms calculated
 number of electron      44.0000000 magnetization       4.0000000
 keeping initial charge density in first step


--------------------------------------------------------------------------------------------------------


 Maximum index for augmentation-charges         42893 (set IRDMAX)


--------------------------------------------------------------------------------------------------------


 First call to EWALD:  gamma=   0.481
 Maximum number of real-space cells 3x 3x 2
 Maximum number of reciprocal cells 2x 2x 4

    FEWALD:  cpu time      0.0004: real time      0.0004


--------------------------------------- Ionic step        1  -------------------------------------------




--------------------------------------- Iteration      1(   1)  ---------------------------------------


    POTLOK:  cpu time      0.1949: real time      0.1952
    SETDIJ:  cpu time      0.7734: real time      0.7777
     EDDAV:  cpu time      3.5454: real time      3.5637
       DOS:  cpu time      0.0006: real time      0.0006
    --------------------------------------------
      LOOP:  cpu time      4.5143: real time      4.5373

 eigenvalue-minimisations  :  6744
 total energy-change (2. order) : 0.5009262E+03  (-0.3011727E+04)
 number of electron      44.0000000 magnetization       4.0000000
 augmentation part       44.0000000 magnetization       4.0000000

 Free energy of the ion-electron system (eV)
  ---------------------------------------------------
  alpha Z        PSCENC =       264.60919239
  Ewald energy   TEWEN  =     -4637.17866551
  -Hartree energ DENC   =     -1556.19354633
  -exchange      EXHF   =         0.00000000
  -V(xc)+E(xc)   XCENC  =       221.00441141
  PAW double counting   =      5208.65407777    -5154.59282805
  entropy T*S    EENTRO =        -0.00163436
  eigenvalues    EBANDS =        46.80049387
  atomic energy  EATOM  =      6107.82468326
  Solvation  Ediel_sol  =         0.00000000
  ---------------------------------------------------
  free energy    TOTEN  =       500.92618447 eV

  energy without entropy =      500.92781883  energy(sigma->0) =      500.92700165


--------------------------------------------------------------------------------------------------------




--------------------------------------- Iteration      1(   2)  ---------------------------------------


     EDDAV:  cpu time      3.3981: real time      3.4163
       DOS:  cpu time      0.0005: real time      0.0005
    --------------------------------------------
      LOOP:  cpu time      3.3986: real time      3.4168

 eigenvalue-minimisations  :  7364
 total energy-change (2. order) :-0.4994048E+03  (-0.4828043E+03)
 number of electron      44.0000000 magnetization       4.0000000
 augmentation part       44.0000000 magnetization       4.0000000

 Free energy of the ion-electron system (eV)
  ---------------------------------------------------
  alpha Z        PSCENC =       264.60919239
  Ewald energy   TEWEN  =     -4637.17866551
  -Hartree energ DENC   =     -1556.19354633
  -exchange      EXHF   =         0.00000000
  -V(xc)+E(xc)   XCENC  =       221.00441141
  PAW double counting   =      5208.65407777    -5154.59282805
  entropy T*S    EENTRO =        -0.00369484
  eigenvalues    EBANDS =      -452.60226897
  atomic energy  EATOM  =      6107.82468326
  Solvation  Ediel_sol  =         0.00000000
  ---------------------------------------------------
  free energy    TOTEN  =         1.52136115 eV

  energy without entropy =        1.52505599  energy(sigma->0) =        1.52320857


--------------------------------------------------------------------------------------------------------




--------------------------------------- Iteration      1(   3)  ---------------------------------------


     EDDAV:  cpu time      3.2829: real time      3.2984
       DOS:  cpu time      0.0005: real time      0.0005
    --------------------------------------------
      LOOP:  cpu time      3.2834: real time      3.2989

 eigenvalue-minimisations  :  7348
 total energy-change (2. order) :-0.2557077E+02  (-0.2522025E+02)
 number of electron      44.0000000 magnetization       4.0000000
 augmentation part       44.0000000 magnetization       4.0000000

 Free energy of the ion-electron system (eV)
  ---------------------------------------------------
  alpha Z        PSCENC =       264.60919239
  Ewald energy   TEWEN  =     -4637.17866551
  -Hartree energ DENC   =     -1556.19354633
  -exchange      EXHF   =         0.00000000
  -V(xc)+E(xc)   XCENC  =       221.00441141
  PAW double counting   =      5208.65407777    -5154.59282805
  entropy T*S    EENTRO =        -0.00206772
  eigenvalues    EBANDS =      -478.17466479
  atomic energy  EATOM  =      6107.82468326
  Solvation  Ediel_sol  =         0.00000000
  ---------------------------------------------------
  free energy    TOTEN  =       -24.04940756 eV

  energy without entropy =      -24.04733984  energy(sigma->0) =      -24.04837370


--------------------------------------------------------------------------------------------------------




--------------------------------------- Iteration      1(   4)  ---------------------------------------


     EDDAV:  cpu time      4.2837: real time      4.3166
       DOS:  cpu time      0.0535: real time      0.0535
    --------------------------------------------
      LOOP:  cpu time      4.3373: real time      4.3701

 eigenvalue-minimisations  :  7348
 total energy-change (2. order) :-0.3178633E+00  (-0.3176317E+00)
 number of electron      44.0000000 magnetization       4.0000000
 augmentation part       44.0000000 magnetization       4.0000000

 Free energy of the ion-electron system (eV)
  ---------------------------------------------------
  alpha Z        PSCENC =       264.60919239
  Ewald energy   TEWEN  =     -4637.17866551
  -Hartree energ DENC   =     -1556.19354633
  -exchange      EXHF   =         0.00000000
  -V(xc)+E(xc)   XCENC  =       221.00441141
  PAW double counting   =      5208.65407777    -5154.59282805
  entropy T*S    EENTRO =        -0.00210718
  eigenvalues    EBANDS =      -478.49248859
  atomic energy  EATOM  =      6107.82468326
  Solvation  Ediel_sol  =         0.00000000
  ---------------------------------------------------
  free energy    TOTEN  =       -24.36727082 eV

  energy without entropy =      -24.36516364  energy(sigma->0) =      -24.36621723


--------------------------------------------------------------------------------------------------------




--------------------------------------- Iteration      1(   5)  ---------------------------------------


     EDDAV:  cpu time      2.8382: real time      2.8407
       DOS:  cpu time      0.0005: real time      0.0005
    CHARGE:  cpu time      0.3868: real time      0.3869
    MIXING:  cpu time      0.0124: real time      0.0124
    --------------------------------------------
      LOOP:  cpu time      3.2379: real time      3.2405

 eigenvalue-minimisations  :  7356
 total energy-change (2. order) :-0.3198463E-02  (-0.3198194E-02)
 number of electron      44.0000000 magnetization       0.7227431
 augmentation part       16.2008225 magnetization       0.5628743

 Broyden mixing:
  rms(total) = 0.17632E+01    rms(broyden)= 0.17631E+01
  rms(prec ) = 0.26824E+01
  weight for this iteration     100.00

 Free energy of the ion-electron system (eV)
  ---------------------------------------------------
  alpha Z        PSCENC =       264.60919239
  Ewald energy   TEWEN  =     -4637.17866551
  -Hartree energ DENC   =     -1556.19354633
  -exchange      EXHF   =         0.00000000
  -V(xc)+E(xc)   XCENC  =       221.00441141
  PAW double counting   =      5208.65407777    -5154.59282805
  entropy T*S    EENTRO =        -0.00210826
  eigenvalues    EBANDS =      -478.49568597
  atomic energy  EATOM  =      6107.82468326
  Solvation  Ediel_sol  =         0.00000000
  ---------------------------------------------------
  free energy    TOTEN  =       -24.37046928 eV

  energy without entropy =      -24.36836102  energy(sigma->0) =      -24.36941515


--------------------------------------------------------------------------------------------------------




--------------------------------------- Iteration      1(   6)  ---------------------------------------


    POTLOK:  cpu time      0.1508: real time      0.1509
    SETDIJ:  cpu time      0.4641: real time      0.4641
     EDDAV:  cpu time      3.0557: real time      3.1872
       DOS:  cpu time      0.0005: real time      0.0005
    CHARGE:  cpu time      0.2775: real time      0.2775
    MIXING:  cpu time      0.0012: real time      0.0012
    --------------------------------------------
      LOOP:  cpu time      3.9498: real time      4.0813

 eigenvalue-minimisations  :  7028
 total energy-change (2. order) : 0.1619470E+01  (-0.1554355E+01)
 number of electron      44.0000001 magnetization       0.2489672
 augmentation part       16.8340577 magnetization       0.1915933

 Broyden mixing:
  rms(total) = 0.71338E+00    rms(broyden)= 0.71329E+00
  rms(prec ) = 0.12175E+01
  weight for this iteration     100.00

 eigenvalues of (default mixing * dielectric matrix)
  average eigenvalue GAMMA=   0.8343
  0.8343

 Free energy of the ion-electron system (eV)
  ---------------------------------------------------
  alpha Z        PSCENC =       264.60919239
  Ewald energy   TEWEN  =     -4637.17866551
  -Hartree energ DENC   =     -1525.94192812
  -exchange      EXHF   =         0.00000000
  -V(xc)+E(xc)   XCENC  =       220.34965213
  PAW double counting   =      5342.78945017    -5294.59026186
  entropy T*S    EENTRO =        -0.00040251
  eigenvalues    EBANDS =      -500.61271880
  atomic energy  EATOM  =      6107.82468326
  Solvation  Ediel_sol  =         0.00000000
  ---------------------------------------------------
  free energy    TOTEN  =       -22.75099884 eV

  energy without entropy =      -22.75059633  energy(sigma->0) =      -22.75079759


--------------------------------------------------------------------------------------------------------




--------------------------------------- Iteration      1(   7)  ---------------------------------------


    POTLOK:  cpu time      0.0413: real time      0.0413
    SETDIJ:  cpu time      0.4174: real time      0.4174
     EDDAV:  cpu time      2.7281: real time      2.7287
       DOS:  cpu time      0.0005: real time      0.0005
    CHARGE:  cpu time      0.2769: real time      0.2769
    MIXING:  cpu time      0.0013: real time      0.0013
    --------------------------------------------
      LOOP:  cpu time      3.4655: real time      3.4660

 eigenvalue-minimisations  :  7020
 total energy-change (2. order) : 0.5575034E+00  (-0.2535332E+00)
 number of electron      44.0000000 magnetization      -0.0684151
 augmentation part       16.5215939 magnetization      -0.0990849

 Broyden mixing:
  rms(total) = 0.36690E+00    rms(broyden)= 0.36689E+00
  rms(prec ) = 0.44183E+00
  weight for this iteration     100.00

 eigenvalues of (default mixing * dielectric matrix)
  average eigenvalue GAMMA=   0.8944
  1.0952  0.6937

 Free energy of the ion-electron system (eV)
  ---------------------------------------------------
  alpha Z        PSCENC =       264.60919239
  Ewald energy   TEWEN  =     -4637.17866551
  -Hartree energ DENC   =     -1539.23216620
  -exchange      EXHF   =         0.00000000
  -V(xc)+E(xc)   XCENC  =       220.55339479
  PAW double counting   =      5461.88366296    -5413.05828285
  entropy T*S    EENTRO =        -0.00055873
  eigenvalues    EBANDS =      -487.59475557
  atomic energy  EATOM  =      6107.82468326
  Solvation  Ediel_sol  =         0.00000000
  ---------------------------------------------------
  free energy    TOTEN  =       -22.19349545 eV

  energy without entropy =      -22.19293672  energy(sigma->0) =      -22.19321609


--------------------------------------------------------------------------------------------------------




--------------------------------------- Iteration      1(   8)  ---------------------------------------


    POTLOK:  cpu time      0.0408: real time      0.0408
    SETDIJ:  cpu time      0.4152: real time      0.4152
     EDDAV:  cpu time      2.7216: real time      2.7230
       DOS:  cpu time      0.0005: real time      0.0005
    CHARGE:  cpu time      0.2764: real time      0.2764
    MIXING:  cpu time      0.0012: real time      0.0012
    --------------------------------------------
      LOOP:  cpu time      3.4556: real time      3.4571

 eigenvalue-minimisations  :  7092
 total energy-change (2. order) :-0.1666610E-01  (-0.4109345E-01)
 number of electron      44.0000000 magnetization      -0.0558498
 augmentation part       16.5676145 magnetization      -0.0515873

 Broyden mixing:
  rms(total) = 0.15031E+00    rms(broyden)= 0.15031E+00
  rms(prec ) = 0.19208E+00
  weight for this iteration     100.00

 eigenvalues of (default mixing * dielectric matrix)
  average eigenvalue GAMMA=   1.1659
  0.7223  0.9778  1.7976

 Free energy of the ion-electron system (eV)
  ---------------------------------------------------
  alpha Z        PSCENC =       264.60919239
  Ewald energy   TEWEN  =     -4637.17866551
  -Hartree energ DENC   =     -1535.07439567
  -exchange      EXHF   =         0.00000000
  -V(xc)+E(xc)   XCENC  =       220.37478890
  PAW double counting   =      5595.67612615    -5547.98798846
  entropy T*S    EENTRO =        -0.00132417
  eigenvalues    EBANDS =      -490.45257845
  atomic energy  EATOM  =      6107.82468326
  Solvation  Ediel_sol  =         0.00000000
  ---------------------------------------------------
  free energy    TOTEN  =       -22.21016155 eV

  energy without entropy =      -22.20883738  energy(sigma->0) =      -22.20949947


--------------------------------------------------------------------------------------------------------




--------------------------------------- Iteration      1(   9)  ---------------------------------------


    POTLOK:  cpu time      0.0407: real time      0.0407
    SETDIJ:  cpu time      0.4165: real time      0.4168
     EDDAV:  cpu time      2.7912: real time      2.7918
       DOS:  cpu time      0.0005: real time      0.0005
    CHARGE:  cpu time      0.2765: real time      0.2765
    MIXING:  cpu time      0.0012: real time      0.0012
    --------------------------------------------
      LOOP:  cpu time      3.5266: real time      3.5276

 eigenvalue-minimisations  :  7340
 total energy-change (2. order) : 0.5234126E-02  (-0.2397521E-02)
 number of electron      44.0000000 magnetization      -0.0132563
 augmentation part       16.5736019 magnetization      -0.0048828

 Broyden mixing:
  rms(total) = 0.44197E-01    rms(broyden)= 0.44196E-01
  rms(prec ) = 0.52378E-01
  weight for this iteration     100.00

 eigenvalues of (default mixing * dielectric matrix)
  average eigenvalue GAMMA=   1.1534
  2.1907  0.9183  0.7523  0.7523

 Free energy of the ion-electron system (eV)
  ---------------------------------------------------
  alpha Z        PSCENC =       264.60919239
  Ewald energy   TEWEN  =     -4637.17866551
  -Hartree energ DENC   =     -1536.04282479
  -exchange      EXHF   =         0.00000000
  -V(xc)+E(xc)   XCENC  =       220.47178622
  PAW double counting   =      5677.30350132    -5630.11947528
  entropy T*S    EENTRO =        -0.00143544
  eigenvalues    EBANDS =      -489.07168960
  atomic energy  EATOM  =      6107.82468326
  Solvation  Ediel_sol  =         0.00000000
  ---------------------------------------------------
  free energy    TOTEN  =       -22.20492742 eV

  energy without entropy =      -22.20349199  energy(sigma->0) =      -22.20420971


--------------------------------------------------------------------------------------------------------




--------------------------------------- Iteration      1(  10)  ---------------------------------------


    POTLOK:  cpu time      0.0405: real time      0.0406
    SETDIJ:  cpu time      0.4152: real time      0.4153
     EDDAV:  cpu time      2.7398: real time      2.7411
       DOS:  cpu time      0.0005: real time      0.0005
    CHARGE:  cpu time      0.2792: real time      0.2792
    MIXING:  cpu time      0.0014: real time      0.0014
    --------------------------------------------
      LOOP:  cpu time      3.4766: real time      3.4781

 eigenvalue-minimisations  :  7128
 total energy-change (2. order) :-0.1330341E-02  (-0.2625537E-03)
 number of electron      44.0000000 magnetization       0.0043020
 augmentation part       16.5673719 magnetization       0.0055366

 Broyden mixing:
  rms(total) = 0.17690E-01    rms(broyden)= 0.17690E-01
  rms(prec ) = 0.20434E-01
  weight for this iteration     100.00

 eigenvalues of (default mixing * dielectric matrix)
  average eigenvalue GAMMA=   1.1872
  2.4847  1.0279  1.0279  0.6978  0.6978

 Free energy of the ion-electron system (eV)
  ---------------------------------------------------
  alpha Z        PSCENC =       264.60919239
  Ewald energy   TEWEN  =     -4637.17866551
  -Hartree energ DENC   =     -1536.55659498
  -exchange      EXHF   =         0.00000000
  -V(xc)+E(xc)   XCENC  =       220.49018349
  PAW double counting   =      5705.76270217    -5658.61442673
  entropy T*S    EENTRO =        -0.00145824
  eigenvalues    EBANDS =      -488.54187364
  atomic energy  EATOM  =      6107.82468326
  Solvation  Ediel_sol  =         0.00000000
  ---------------------------------------------------
  free energy    TOTEN  =       -22.20625777 eV

  energy without entropy =      -22.20479953  energy(sigma->0) =      -22.20552865


--------------------------------------------------------------------------------------------------------




--------------------------------------- Iteration      1(  11)  ---------------------------------------


    POTLOK:  cpu time      0.0413: real time      0.0413
    SETDIJ:  cpu time      0.4182: real time      0.4183
     EDDAV:  cpu time      2.7991: real time      2.8003
       DOS:  cpu time      0.0005: real time      0.0005
    CHARGE:  cpu time      0.2791: real time      0.2791
    MIXING:  cpu time      0.0013: real time      0.0013
    --------------------------------------------
      LOOP:  cpu time      3.5395: real time      3.5408

 eigenvalue-minimisations  :  7356
 total energy-change (2. order) :-0.1825701E-03  (-0.3589254E-04)
 number of electron      44.0000000 magnetization       0.0027666
 augmentation part       16.5671713 magnetization       0.0029077

 Broyden mixing:
  rms(total) = 0.87038E-02    rms(broyden)= 0.87037E-02
  rms(prec ) = 0.10180E-01
  weight for this iteration     100.00

 eigenvalues of (default mixing * dielectric matrix)
  average eigenvalue GAMMA=   1.1776
  2.4535  1.3649  1.0289  0.7932  0.7932  0.6319

 Free energy of the ion-electron system (eV)
  ---------------------------------------------------
  alpha Z        PSCENC =       264.60919239
  Ewald energy   TEWEN  =     -4637.17866551
  -Hartree energ DENC   =     -1536.69684617
  -exchange      EXHF   =         0.00000000
  -V(xc)+E(xc)   XCENC  =       220.49407515
  PAW double counting   =      5714.10688523    -5666.93386788
  entropy T*S    EENTRO =        -0.00143702
  eigenvalues    EBANDS =      -488.43045980
  atomic energy  EATOM  =      6107.82468326
  Solvation  Ediel_sol  =         0.00000000
  ---------------------------------------------------
  free energy    TOTEN  =       -22.20644034 eV

  energy without entropy =      -22.20500332  energy(sigma->0) =      -22.20572183


--------------------------------------------------------------------------------------------------------




--------------------------------------- Iteration      1(  12)  ---------------------------------------


    POTLOK:  cpu time      0.0419: real time      0.0420
    SETDIJ:  cpu time      0.4206: real time      0.4206
     EDDAV:  cpu time      2.7646: real time      2.7663
       DOS:  cpu time      0.0005: real time      0.0005
    CHARGE:  cpu time      0.2827: real time      0.2827
    MIXING:  cpu time      0.0014: real time      0.0014
    --------------------------------------------
      LOOP:  cpu time      3.5117: real time      3.5135

 eigenvalue-minimisations  :  7172
 total energy-change (2. order) :-0.1028943E-04  (-0.5252873E-05)
 number of electron      44.0000000 magnetization      -0.0002081
 augmentation part       16.5673751 magnetization      -0.0004752

 Broyden mixing:
  rms(total) = 0.20862E-02    rms(broyden)= 0.20862E-02
  rms(prec ) = 0.28793E-02
  weight for this iteration     100.00

 eigenvalues of (default mixing * dielectric matrix)
  average eigenvalue GAMMA=   1.2073
  2.4850  1.7736  1.0191  1.0191  0.7635  0.7635  0.6277

 Free energy of the ion-electron system (eV)
  ---------------------------------------------------
  alpha Z        PSCENC =       264.60919239
  Ewald energy   TEWEN  =     -4637.17866551
  -Hartree energ DENC   =     -1536.79085677
  -exchange      EXHF   =         0.00000000
  -V(xc)+E(xc)   XCENC  =       220.49744034
  PAW double counting   =      5717.54685084    -5670.34682954
  entropy T*S    EENTRO =        -0.00141749
  eigenvalues    EBANDS =      -488.36684815
  atomic energy  EATOM  =      6107.82468326
  Solvation  Ediel_sol  =         0.00000000
  ---------------------------------------------------
  free energy    TOTEN  =       -22.20645063 eV

  energy without entropy =      -22.20503313  energy(sigma->0) =      -22.20574188


--------------------------------------------------------------------------------------------------------




--------------------------------------- Iteration      1(  13)  ---------------------------------------


    POTLOK:  cpu time      0.0410: real time      0.0411
    SETDIJ:  cpu time      0.4185: real time      0.4196
     EDDAV:  cpu time      2.7687: real time      2.7698
       DOS:  cpu time      0.0005: real time      0.0005
    CHARGE:  cpu time      0.2819: real time      0.2819
    MIXING:  cpu time      0.0014: real time      0.0014
    --------------------------------------------
      LOOP:  cpu time      3.5120: real time      3.5143

 eigenvalue-minimisations  :  7208
 total energy-change (2. order) :-0.1001007E-04  (-0.1321628E-05)
 number of electron      44.0000000 magnetization      -0.0001464
 augmentation part       16.5673607 magnetization      -0.0002693

 Broyden mixing:
  rms(total) = 0.84357E-03    rms(broyden)= 0.84356E-03
  rms(prec ) = 0.11621E-02
  weight for this iteration     100.00

 eigenvalues of (default mixing * dielectric matrix)
  average eigenvalue GAMMA=   1.2142
  2.5838  2.0260  1.1106  1.1106  0.7719  0.7719  0.7114  0.6271

 Free energy of the ion-electron system (eV)
  ---------------------------------------------------
  alpha Z        PSCENC =       264.60919239
  Ewald energy   TEWEN  =     -4637.17866551
  -Hartree energ DENC   =     -1536.84398307
  -exchange      EXHF   =         0.00000000
  -V(xc)+E(xc)   XCENC  =       220.49962789
  PAW double counting   =      5718.18660815    -5670.97370559
  entropy T*S    EENTRO =        -0.00141300
  eigenvalues    EBANDS =      -488.32880515
  atomic energy  EATOM  =      6107.82468326
  Solvation  Ediel_sol  =         0.00000000
  ---------------------------------------------------
  free energy    TOTEN  =       -22.20646064 eV

  energy without entropy =      -22.20504763  energy(sigma->0) =      -22.20575413


--------------------------------------------------------------------------------------------------------




--------------------------------------- Iteration      1(  14)  ---------------------------------------


    POTLOK:  cpu time      0.0415: real time      0.0416
    SETDIJ:  cpu time      0.4177: real time      0.4178
     EDDAV:  cpu time      2.2338: real time      2.2351
       DOS:  cpu time      0.0005: real time      0.0005
    CHARGE:  cpu time      0.2796: real time      0.2796
    MIXING:  cpu time      0.0014: real time      0.0014
    --------------------------------------------
      LOOP:  cpu time      2.9746: real time      2.9760

 eigenvalue-minimisations  :  5092
 total energy-change (2. order) :-0.1409818E-05  (-0.1717143E-06)
 number of electron      44.0000000 magnetization       0.0000623
 augmentation part       16.5673448 magnetization       0.0000834

 Broyden mixing:
  rms(total) = 0.33356E-03    rms(broyden)= 0.33355E-03
  rms(prec ) = 0.53930E-03
  weight for this iteration     100.00

 eigenvalues of (default mixing * dielectric matrix)
  average eigenvalue GAMMA=   1.2262
  2.5901  2.0846  1.2850  1.0936  1.0936  0.7839  0.7839  0.6967  0.6238

 Free energy of the ion-electron system (eV)
  ---------------------------------------------------
  alpha Z        PSCENC =       264.60919239
  Ewald energy   TEWEN  =     -4637.17866551
  -Hartree energ DENC   =     -1536.86021933
  -exchange      EXHF   =         0.00000000
  -V(xc)+E(xc)   XCENC  =       220.50026134
  PAW double counting   =      5718.13407961    -5670.91742271
  entropy T*S    EENTRO =        -0.00141341
  eigenvalues    EBANDS =      -488.31695769
  atomic energy  EATOM  =      6107.82468326
  Solvation  Ediel_sol  =         0.00000000
  ---------------------------------------------------
  free energy    TOTEN  =       -22.20646205 eV

  energy without entropy =      -22.20504863  energy(sigma->0) =      -22.20575534


--------------------------------------------------------------------------------------------------------




--------------------------------------- Iteration      1(  15)  ---------------------------------------


    POTLOK:  cpu time      0.0408: real time      0.0409
    SETDIJ:  cpu time      0.4174: real time      0.4174
     EDDAV:  cpu time      2.0095: real time      2.0105
       DOS:  cpu time      0.0005: real time      0.0005
    --------------------------------------------
      LOOP:  cpu time      2.4682: real time      2.4693

 eigenvalue-minimisations  :  4280
 total energy-change (2. order) :-0.2290826E-06  (-0.5590045E-07)
 number of electron      44.0000000 magnetization       0.0000623
 augmentation part       16.5673448 magnetization       0.0000834

 Free energy of the ion-electron system (eV)
  ---------------------------------------------------
  alpha Z        PSCENC =       264.60919239
  Ewald energy   TEWEN  =     -4637.17866551
  -Hartree energ DENC   =     -1536.86661859
  -exchange      EXHF   =         0.00000000
  -V(xc)+E(xc)   XCENC  =       220.50047145
  PAW double counting   =      5717.94216021    -5670.72427436
  entropy T*S    EENTRO =        -0.00141488
  eigenvalues    EBANDS =      -488.31199625
  atomic energy  EATOM  =      6107.82468326
  Solvation  Ediel_sol  =         0.00000000
  ---------------------------------------------------
  free energy    TOTEN  =       -22.20646227 eV

  energy without entropy =      -22.20504739  energy(sigma->0) =      -22.20575483


--------------------------------------------------------------------------------------------------------




 average (electrostatic) potential at core
  the test charge radii are     1.0504  0.7215
  (the norm of the test charge is              1.0000)
       1 -77.8259       2 -77.8259       3 -70.0172       4 -70.0172
 
 
 
 E-fermi :   6.9029     XC(G=0): -11.8670     alpha+bet :-12.7273

 val. band max:        6.8974022771   @ k =   0.5000   0.2500   0.0000
 cond. band min:       6.9397226493   @ k =   0.5000   0.5000   0.3333
 fundamental gap:      0.0423203722
 Fermi energy:         6.9028888737

 spin component 1

 k-point     1 :       0.0000    0.0000    0.0000
  band No.  band energies     occupation 
      1     -43.9617      1.00000
      2     -43.9617      1.00000
      3     -43.9546      1.00000
      4     -43.9053      1.00000
      5     -43.1265      1.00000
      6     -43.1265      1.00000
      7     -13.4017      1.00000
      8     -12.1801      1.00000
      9      -1.9393      1.00000
     10      -0.0007      1.00000
     11      -0.0007      1.00000
     12       2.6110      1.00000
     13       2.8158      1.00000
     14       2.8158      1.00000
     15       3.1515      1.00000
     16       3.3476      1.00000
     17       3.6091      1.00000
     18       4.9123      1.00000
     19       4.9123      1.00000
     20       4.9676      1.00000
     21       5.1848      1.00000
     22       5.8389      1.00000
     23       8.7916      0.00000
     24       8.7916      0.00000
     25       9.0078      0.00000
     26      12.3680      0.00000
     27      15.2196      0.00000
     28      21.4422      0.00000

 k-point     2 :       0.1250    0.0000    0.0000
  band No.  band energies     occupation 
      1     -43.9743      1.00000
      2     -43.9610      1.00000
      3     -43.9515      1.00000
      4     -43.9059      1.00000
      5     -43.1359      1.00000
      6     -43.1256      1.00000
      7     -13.3229      1.00000
      8     -12.2117      1.00000
      9      -1.7746      1.00000
     10       0.0116      1.00000
     11       0.0441      1.00000
     12       1.8699      1.00000
     13       2.6720      1.00000
     14       2.8655      1.00000
     15       3.2392      1.00000
     16       3.7263      1.00000
     17       3.7517      1.00000
     18       4.9051      1.00000
     19       4.9219      1.00000
     20       4.9264      1.00000
     21       5.2662      1.00000
     22       5.8693      1.00000
     23       8.5815      0.00000
     24       8.7305      0.00000
     25       9.3768      0.00000
     26      12.9327      0.00000
     27      14.9031      0.00000
     28      19.5332      0.00000

 k-point     3 :       0.2500    0.0000    0.0000
  band No.  band energies     occupation 
      1     -44.0044      1.00000
      2     -43.9593      1.00000
      3     -43.9430      1.00000
      4     -43.9079      1.00000
      5     -43.1587      1.00000
      6     -43.1236      1.00000
      7     -13.1274      1.00000
      8     -12.2879      1.00000
      9      -1.3575      1.00000
     10       0.1255      1.00000
     11       0.1558      1.00000
     12       0.8144      1.00000
     13       2.3733      1.00000
     14       2.7269      1.00000
     15       3.1183      1.00000
     16       4.0120      1.00000
     17       4.5239      1.00000
     18       4.7218      1.00000
     19       4.8840      1.00000
     20       5.1404      1.00000
     21       5.5156      1.00000
     22       5.9319      1.00000
     23       8.2538      0.00000
     24       8.5829      0.00000
     25      10.2215      0.00000
     26      13.9915      0.00000
     27      14.2707      0.00000
     28      17.1179      0.00000

 k-point     4 :       0.3750    0.0000    0.0000
  band No.  band energies     occupation 
      1     -44.0345      1.00000
      2     -43.9576      1.00000
      3     -43.9322      1.00000
      4     -43.9123      1.00000
      5     -43.1815      1.00000
      6     -43.1215      1.00000
      7     -12.9233      1.00000
      8     -12.3639      1.00000
      9      -0.9057      1.00000
     10      -0.0057      1.00000
     11       0.2733      1.00000
     12       0.4443      1.00000
     13       1.9483      1.00000
     14       2.1182      1.00000
     15       3.4429      1.00000
     16       4.2871      1.00000
     17       4.5167      1.00000
     18       4.8565      1.00000
     19       5.0387      1.00000
     20       5.3987      1.00000
     21       5.7418      1.00000
     22       6.2586      1.00000
     23       8.1046      0.00000
     24       8.4359      0.00000
     25      11.0709      0.00000
     26      12.9877      0.00000
     27      14.9824      0.00000
     28      15.9477      0.00000

 k-point     5 :       0.5000    0.0000    0.0000
  band No.  band energies     occupation 
      1     -44.0469      1.00000
      2     -43.9569      1.00000
      3     -43.9247      1.00000
      4     -43.9172      1.00000
      5     -43.1909      1.00000
      6     -43.1207      1.00000
      7     -12.8360      1.00000
      8     -12.3954      1.00000
      9      -0.6932      1.00000
     10      -0.3286      1.00000
     11       0.3238      1.00000
     12       0.8090      1.00000
     13       1.3955      1.00000
     14       2.0215      1.00000
     15       3.6179      1.00000
     16       4.4035      1.00000
     17       4.4338      1.00000
     18       4.8430      1.00000
     19       5.0897      1.00000
     20       5.4873      1.00000
     21       5.8287      1.00000
     22       6.6135      1.00000
     23       8.0916      0.00000
     24       8.3752      0.00000
     25      11.3274      0.00000
     26      13.0252      0.00000
     27      13.6575      0.00000
     28      17.2887      0.00000

 k-point     6 :       0.1250    0.1250    0.0000
  band No.  band energies     occupation 
      1     -43.9755      1.00000
      2     -43.9715      1.00000
      3     -43.9484      1.00000
      4     -43.9063      1.00000
      5     -43.1360      1.00000
      6     -43.1341      1.00000
      7     -13.2444      1.00000
      8     -12.2429      1.00000
      9      -1.6054      1.00000
     10      -0.0618      1.00000
     11       0.1750      1.00000
     12       1.8153      1.00000
     13       1.8514      1.00000
     14       3.2081      1.00000
     15       3.2875      1.00000
     16       3.8712      1.00000
     17       3.9510      1.00000
     18       4.6881      1.00000
     19       4.9468      1.00000
     20       5.0808      1.00000
     21       5.2463      1.00000
     22       5.9147      1.00000
     23       8.3675      0.00000
     24       8.6837      0.00000
     25       9.7283      0.00000
     26      13.4676      0.00000
     27      14.6898      0.00000
     28      19.5385      0.00000

 k-point     7 :       0.2500    0.1250    0.0000
  band No.  band energies     occupation 
      1     -44.0041      1.00000
      2     -43.9714      1.00000
      3     -43.9403      1.00000
      4     -43.9080      1.00000
      5     -43.1579      1.00000
      6     -43.1328      1.00000
      7     -13.0493      1.00000
      8     -12.3182      1.00000
      9      -1.1753      1.00000
     10      -0.0442      1.00000
     11       0.3822      1.00000
     12       0.7825      1.00000
     13       1.7165      1.00000
     14       2.8268      1.00000
     15       3.5033      1.00000
     16       4.1421      1.00000
     17       4.5259      1.00000
     18       4.6179      1.00000
     19       4.8205      1.00000
     20       5.2199      1.00000
     21       5.4809      1.00000
     22       5.9519      1.00000
     23       7.9818      0.00000
     24       8.6049      0.00000
     25      10.5269      0.00000
     26      14.0102      0.00000
     27      14.7542      0.00000
     28      17.3472      0.00000

 k-point     8 :       0.3750    0.1250    0.0000
  band No.  band energies     occupation 
      1     -44.0340      1.00000
      2     -43.9697      1.00000
      3     -43.9301      1.00000
      4     -43.9118      1.00000
      5     -43.1806      1.00000
      6     -43.1308      1.00000
      7     -12.8458      1.00000
      8     -12.3935      1.00000
      9      -0.7077      1.00000
     10      -0.0299      1.00000
     11       0.0855      1.00000
     12       0.6690      1.00000
     13       1.5793      1.00000
     14       2.1274      1.00000
     15       3.7382      1.00000
     16       4.3586      1.00000
     17       4.5619      1.00000
     18       4.6495      1.00000
[...]
      9      -0.4704      1.00000
     10      -0.4704      1.00000
     11       1.0787      1.00000
     12       1.0787      1.00000
     13       1.3027      1.00000
     14       1.3027      1.00000
     15       4.2549      1.00000
     16       4.2549      1.00000
     17       4.4247      1.00000
     18       4.4247      1.00000
     19       5.3167      1.00000
     20       5.3167      1.00000
     21       5.5934      1.00000
     22       5.5934      1.00000
     23       7.7322      0.00000
     24       7.7322      0.00000
     25      12.4259      0.00000
     26      12.4259      0.00000
     27      18.6932      0.00000
     28      18.6932      0.00000

 k-point    56 :       0.3750    0.2500    0.5000
  band No.  band energies     occupation 
      1     -44.0330      1.00000
      2     -44.0002      1.00000
      3     -43.9178      1.00000
      4     -43.9162      1.00000
      5     -43.1780      1.00000
      6     -43.1533      1.00000
      7     -12.6846      1.00000
      8     -12.4319      1.00000
      9      -0.4050      1.00000
     10      -0.2696      1.00000
     11       0.2941      1.00000
     12       1.0329      1.00000
     13       1.3940      1.00000
     14       1.6916      1.00000
     15       4.0477      1.00000
     16       4.2417      1.00000
     17       4.4645      1.00000
     18       4.5718      1.00000
     19       5.0968      1.00000
     20       5.2744      1.00000
     21       5.7231      1.00000
     22       6.2023      1.00000
     23       7.6785      0.00000
     24       8.0366      0.00000
     25      12.0640      0.00000
     26      12.9396      0.00000
     27      16.9471      0.00000
     28      17.8299      0.00000

 k-point    57 :       0.5000    0.2500    0.5000
  band No.  band energies     occupation 
      1     -44.0453      1.00000
      2     -43.9991      1.00000
      3     -43.9169      1.00000
      4     -43.9147      1.00000
      5     -43.1873      1.00000
      6     -43.1524      1.00000
      7     -12.7071      1.00000
      8     -12.3469      1.00000
      9      -0.2629      1.00000
     10      -0.1856      1.00000
     11      -0.0308      1.00000
     12       0.7683      1.00000
     13       1.5485      1.00000
     14       1.9386      1.00000
     15       3.9270      1.00000
     16       4.1405      1.00000
     17       4.5881      1.00000
     18       4.7355      1.00000
     19       4.8723      1.00000
     20       5.0835      1.00000
     21       5.7840      1.00000
     22       6.5764      1.00000
     23       7.9772      0.00000
     24       8.1369      0.00000
     25      11.6130      0.00000
     26      13.2357      0.00000
     27      16.1840      0.00000
     28      17.3063      0.00000

 k-point    58 :       0.3750    0.3750    0.5000
  band No.  band energies     occupation 
      1     -44.0300      1.00000
      2     -44.0300      1.00000
      3     -43.9143      1.00000
      4     -43.9143      1.00000
      5     -43.1757      1.00000
      6     -43.1757      1.00000
      7     -12.4940      1.00000
      8     -12.4940      1.00000
      9      -0.0953      1.00000
     10      -0.0953      1.00000
     11       0.6030      1.00000
     12       0.6030      1.00000
     13       1.1467      1.00000
     14       1.1467      1.00000
     15       4.0196      1.00000
     16       4.0196      1.00000
     17       4.7407      1.00000
     18       4.7407      1.00000
     19       5.2584      1.00000
     20       5.2584      1.00000
     21       6.3283      1.00000
     22       6.3283      1.00000
     23       7.7592      0.00000
     24       7.7592      0.00000
     25      12.3823      0.00000
     26      12.3823      0.00000
     27      18.3072      0.00000
     28      18.3072      0.00000

 k-point    59 :       0.5000    0.3750    0.5000
  band No.  band energies     occupation 
      1     -44.0423      1.00000
      2     -44.0288      1.00000
      3     -43.9134      1.00000
      4     -43.9128      1.00000
      5     -43.1850      1.00000
      6     -43.1748      1.00000
      7     -12.5199      1.00000
      8     -12.4129      1.00000
      9       0.0145      1.00000
     10       0.2521      1.00000
     11       0.2875      1.00000
     12       0.5721      1.00000
     13       0.7944      1.00000
     14       1.2612      1.00000
     15       3.9211      1.00000
     16       3.9269      1.00000
     17       4.9054      1.00000
     18       4.9317      1.00000
     19       5.0829      1.00000
     20       5.2507      1.00000
     21       6.4081      1.00000
     22       6.7697      0.99992
     23       7.7474      0.00000
     24       7.7642      0.00000
     25      11.9722      0.00000
     26      12.5459      0.00000
     27      17.7405      0.00000
     28      18.2589      0.00000

 k-point    60 :       0.5000    0.5000    0.5000
  band No.  band energies     occupation 
      1     -44.0411      1.00000
      2     -44.0411      1.00000
      3     -43.9120      1.00000
      4     -43.9120      1.00000
      5     -43.1841      1.00000
      6     -43.1841      1.00000
      7     -12.4404      1.00000
      8     -12.4404      1.00000
      9       0.4371      1.00000
     10       0.4371      1.00000
     11       0.4955      1.00000
     12       0.4955      1.00000
     13       0.5647      1.00000
     14       0.5647      1.00000
     15       3.8326      1.00000
     16       3.8326      1.00000
     17       4.9605      1.00000
     18       4.9605      1.00000
     19       5.3281      1.00000
     20       5.3281      1.00000
     21       6.8385      0.96580
     22       6.8385      0.96580
     23       7.6261      0.00000
     24       7.6261      0.00000
     25      12.1455      0.00000
     26      12.1455      0.00000
     27      18.5656      0.00000
     28      18.5662      0.00000


--------------------------------------------------------------------------------------------------------


 soft charge-density along one line, spin component            1
         0         1         2         3         4         5         6         7         8         9
 total charge-density along one line
 
 soft charge-density along one line, spin component            2
         0         1         2         3         4         5         6         7         8         9
 total charge-density along one line
 
 pseudopotential strength for first ion, spin component:            1
-38.791  -0.000  -0.000   9.102   0.000   0.000   0.000  -0.000
 -0.000 -39.202  -0.000   0.000   9.335   0.000   0.000   0.000
 -0.000  -0.000 -39.228   0.000   0.000   9.353   0.000   0.000
  9.102   0.000   0.000   7.646  -0.000  -0.000  -0.000   0.000
  0.000   9.335   0.000  -0.000   7.591  -0.000  -0.000  -0.000
  0.000   0.000   9.353  -0.000  -0.000   7.589  -0.000  -0.000
  0.000   0.000   0.000  -0.000  -0.000  -0.000  -3.752  -0.000
 -0.000   0.000   0.000   0.000  -0.000  -0.000  -0.000  -3.730
 -0.000  -0.000  -0.000  -0.000   0.000   0.000   0.000   0.000
  0.000   0.000  -0.000  -0.000  -0.000   0.000  -0.000  -0.000
  0.000  -0.000   0.000  -0.000   0.000  -0.000  -0.000   0.000
  0.000   0.000   0.000  -0.000  -0.000  -0.000  -3.563  -0.000
 -0.000   0.000   0.000   0.000  -0.000  -0.000  -0.000  -3.539
 -0.000  -0.000  -0.000  -0.000   0.000   0.000   0.000   0.000
  0.000   0.000  -0.000  -0.000  -0.000   0.000  -0.000  -0.000
  0.000  -0.000   0.000  -0.000   0.000  -0.000  -0.000   0.000
 -0.000   0.000  -0.000   0.000   0.000  -0.000   0.000   0.000
 -0.000   0.000  -0.000   0.000   0.000  -0.000   0.000   0.000
 pseudopotential strength for first ion, spin component:            2
-38.791  -0.000  -0.000   9.102   0.000   0.000   0.000  -0.000
 -0.000 -39.202  -0.000   0.000   9.335   0.000  -0.000   0.000
 -0.000  -0.000 -39.228   0.000   0.000   9.353   0.000  -0.000
  9.102   0.000   0.000   7.646  -0.000  -0.000  -0.000   0.000
  0.000   9.335   0.000  -0.000   7.591  -0.000   0.000  -0.000
  0.000   0.000   9.353  -0.000  -0.000   7.589  -0.000   0.000
  0.000  -0.000   0.000  -0.000   0.000  -0.000  -3.752  -0.000
 -0.000   0.000  -0.000   0.000  -0.000   0.000  -0.000  -3.730
 -0.000  -0.000  -0.000   0.000   0.000   0.000   0.000   0.000
 -0.000   0.000  -0.000   0.000  -0.000   0.000  -0.000  -0.000
  0.000  -0.000   0.000  -0.000   0.000  -0.000  -0.000   0.000
  0.000  -0.000   0.000  -0.000   0.000  -0.000  -3.563  -0.000
 -0.000   0.000  -0.000   0.000  -0.000   0.000  -0.000  -3.539
 -0.000  -0.000  -0.000   0.000   0.000   0.000   0.000   0.000
 -0.000   0.000  -0.000   0.000  -0.000   0.000  -0.000  -0.000
  0.000  -0.000   0.000  -0.000   0.000  -0.000  -0.000   0.000
 -0.000   0.000  -0.000   0.000   0.000  -0.000   0.000   0.000
 -0.000   0.000  -0.000   0.000   0.000  -0.000   0.000   0.000
 total augmentation occupancy for first ion, spin component:            1
  1.998   0.000   0.000  -0.011  -0.000  -0.000   0.000   0.000   0.000   0.000   0.000   0.000   0.000   0.000   0.000   0.000
  0.000   1.998   0.000  -0.000  -0.020  -0.000   0.000   0.000   0.000   0.000   0.000   0.000   0.000   0.000   0.000   0.000
  0.000   0.000   1.998  -0.000  -0.000  -0.021   0.000   0.000   0.000   0.000   0.000   0.000   0.000   0.000   0.000   0.000
 -0.011  -0.000  -0.000   0.045   0.000   0.000   0.000   0.000   0.000   0.000   0.000   0.000   0.000   0.000   0.000   0.000
 -0.000  -0.020  -0.000   0.000   0.134   0.000   0.000   0.000   0.000   0.000   0.000   0.000   0.000   0.000   0.000   0.000
 -0.000  -0.000  -0.021   0.000   0.000   0.159   0.000   0.000   0.000   0.000   0.000   0.000   0.000   0.000   0.000   0.000
  0.000   0.000   0.000   0.000   0.000   0.000   2.219   0.000  -0.000   0.000  -0.000  -0.324  -0.000   0.000  -0.000   0.000
  0.000   0.000   0.000   0.000   0.000   0.000   0.000   2.153   0.000   0.000  -0.000  -0.000  -0.278   0.000  -0.000   0.000
  0.000   0.000   0.000   0.000   0.000   0.000  -0.000   0.000   2.380   0.000   0.169   0.000   0.000  -0.547  -0.000  -0.115
  0.000   0.000   0.000   0.000   0.000   0.000   0.000   0.000   0.000   4.856   0.000  -0.000  -0.000  -0.000  -2.784  -0.000
  0.000   0.000   0.000   0.000   0.000   0.000  -0.000  -0.000   0.169   0.000   3.107   0.000   0.000  -0.110  -0.000  -1.169
  0.000   0.000   0.000   0.000   0.000   0.000  -0.324  -0.000   0.000  -0.000   0.000   0.375   0.000  -0.000   0.000  -0.000
  0.000   0.000   0.000   0.000   0.000   0.000  -0.000  -0.278   0.000  -0.000   0.000   0.000   0.370   0.000   0.000  -0.000
  0.000   0.000   0.000   0.000   0.000   0.000   0.000   0.000  -0.547  -0.000  -0.110  -0.000   0.000   0.671   0.000  -0.017
  0.000   0.000   0.000   0.000   0.000   0.000  -0.000  -0.000  -0.000  -2.784  -0.000   0.000   0.000   0.000   1.857   0.000
  0.000   0.000   0.000   0.000   0.000   0.000   0.000   0.000  -0.115  -0.000  -1.169  -0.000  -0.000  -0.017   0.000   1.089
  0.000   0.000   0.000   0.000   0.000   0.000  -0.000  -0.000   0.070   0.000   0.420   0.000   0.000  -0.273  -0.000  -0.848
  0.000   0.000   0.000   0.000   0.000   0.000  -0.000  -0.000   0.022  -0.000  -0.001  -0.000  -0.000   0.023   0.000   0.090
 total augmentation occupancy for first ion, spin component:            2
 -0.000  -0.000  -0.000  -0.000  -0.000  -0.000   0.000   0.000   0.000   0.000   0.000   0.000   0.000   0.000   0.000   0.000
 -0.000  -0.000  -0.000  -0.000  -0.000  -0.000   0.000   0.000   0.000   0.000   0.000   0.000   0.000   0.000   0.000   0.000
 -0.000  -0.000  -0.000  -0.000  -0.000  -0.000   0.000   0.000   0.000   0.000   0.000   0.000   0.000   0.000   0.000   0.000
 -0.000  -0.000  -0.000  -0.000  -0.000  -0.000   0.000   0.000   0.000   0.000   0.000   0.000   0.000   0.000   0.000   0.000
 -0.000  -0.000  -0.000  -0.000   0.000   0.000   0.000   0.000   0.000   0.000   0.000   0.000   0.000   0.000   0.000   0.000
 -0.000  -0.000  -0.000  -0.000   0.000   0.000   0.000   0.000   0.000   0.000   0.000   0.000   0.000   0.000   0.000   0.000
  0.000   0.000   0.000   0.000   0.000   0.000  -0.000  -0.000  -0.000  -0.000  -0.000   0.000   0.000  -0.000   0.000  -0.000
  0.000   0.000   0.000   0.000   0.000   0.000  -0.000  -0.000  -0.000  -0.000   0.000   0.000   0.000   0.000   0.000  -0.000
  0.000   0.000   0.000   0.000   0.000   0.000  -0.000  -0.000   0.000   0.000   0.000  -0.000   0.000  -0.000  -0.000   0.000
  0.000   0.000   0.000   0.000   0.000   0.000  -0.000  -0.000   0.000   0.000  -0.000   0.000   0.000  -0.000  -0.000   0.000
  0.000   0.000   0.000   0.000   0.000   0.000  -0.000   0.000   0.000  -0.000  -0.000  -0.000  -0.000   0.000   0.000   0.000
  0.000   0.000   0.000   0.000   0.000   0.000   0.000   0.000  -0.000   0.000  -0.000   0.000   0.000  -0.000   0.000  -0.000
  0.000   0.000   0.000   0.000   0.000   0.000   0.000   0.000   0.000   0.000  -0.000   0.000   0.000  -0.000   0.000  -0.000
  0.000   0.000   0.000   0.000   0.000   0.000  -0.000   0.000  -0.000  -0.000   0.000  -0.000  -0.000   0.000  -0.000  -0.000
  0.000   0.000   0.000   0.000   0.000   0.000   0.000   0.000  -0.000  -0.000   0.000   0.000   0.000  -0.000   0.000   0.000
  0.000   0.000   0.000   0.000   0.000   0.000  -0.000  -0.000   0.000   0.000   0.000  -0.000  -0.000  -0.000   0.000   0.000
  0.000   0.000   0.000   0.000   0.000   0.000  -0.000  -0.000   0.000   0.000   0.000  -0.000  -0.000   0.000   0.000   0.000
  0.000   0.000   0.000   0.000   0.000   0.000   0.000   0.000  -0.000  -0.000  -0.000   0.000   0.000  -0.000  -0.000  -0.000


------------------------ aborting loop because EDIFF is reached ----------------------------------------





 total charge

# of ion       s       p       d       tot
------------------------------------------
    1        0.300   6.191   7.925  14.415
    2        0.300   6.191   7.925  14.415
    3        1.559   3.392   0.000   4.951
    4        1.559   3.392   0.000   4.951
--------------------------------------------------
tot          3.717  19.166  15.849  38.732



 magnetization (x)

# of ion       s       p       d       tot
------------------------------------------
    1       -0.000  -0.000   0.000   0.000
    2       -0.000  -0.000   0.000   0.000
    3        0.000   0.000   0.000   0.000
    4        0.000   0.000   0.000   0.000
--------------------------------------------------
tot          0.000   0.000   0.000   0.000
 
    CHARGE:  cpu time      0.2740: real time      0.2741
    FORLOC:  cpu time      0.0011: real time      0.0011
    FORNL :  cpu time      0.5219: real time      0.5220
    FORCOR:  cpu time      0.4529: real time      0.4529
    FORHAR:  cpu time      0.0047: real time      0.0047
    MIXING:  cpu time      0.0015: real time      0.0015
    OFIELD:  cpu time      0.0000: real time      0.0000

 ---------------------------------------------------------------------------------------------

         DFTD3 V3.0 Rev 1        
 DF pbe       
 parameters
 k1-k3        =   16.0000    1.3333   -4.0000
 Edisp (eV)   -1.24372

 E6    (eV) :    -0.7446
 E8    (eV) :    -0.4991
 % E8        : 40.13
    FORVDW:  cpu time      0.0082: real time      0.0082

 VOLUME and BASIS-vectors are now :
 -----------------------------------------------------------------------------
  energy-cutoff  :      600.00
  volume of cell :       50.08
      direct lattice vectors                 reciprocal lattice vectors
     3.053604110  0.000000000  0.000000000     0.327481875 -0.000000000  0.000000000
     0.000000000  3.053604110  0.000000000     0.000000000  0.327481875  0.000000000
     0.000000000  0.000000000  5.371256790    -0.000000000 -0.000000000  0.186176167

  length of vectors
     3.053604110  3.053604110  5.371256790     0.327481875  0.327481875  0.186176167


 FORCES acting on ions
    electron-ion (+dipol)            ewald-force                    non-local-force                 convergence-correction
 -----------------------------------------------------------------------------------------------
   0.613E-12 -.208E-13 -.551E-11   0.739E-14 -.375E-14 0.568E-13   -.217E-24 0.000E+00 0.000E+00   -.120E-13 -.112E-13 0.264E-12
   -.105E-13 0.624E-12 -.280E-12   0.256E-14 0.123E-13 -.568E-13   -.625E-25 0.000E+00 0.000E+00   -.212E-13 -.292E-13 -.731E-13
   -.421E-13 0.909E-17 -.430E-11   0.312E-15 0.187E-13 0.119E-12   -.135E-16 -.694E-17 0.000E+00   -.757E-13 0.300E-13 -.144E-13
   0.105E-13 0.372E-13 0.457E-11   -.648E-14 -.261E-13 -.119E-12   0.127E-16 0.694E-17 -.389E-15   0.505E-13 -.408E-13 0.620E-13
 -----------------------------------------------------------------------------------------------
   0.571E-12 0.640E-12 -.552E-11   0.379E-14 0.117E-14 0.128E-18   -.856E-18 0.000E+00 -.389E-15   -.583E-13 -.512E-13 0.239E-12
 
 
 POSITION                                       TOTAL-FORCE (eV/Angst)
 -----------------------------------------------------------------------------------
      1.52680      0.00000      2.68563         0.000000      0.000000      0.000000
      0.00000      1.52680      0.00000         0.000000      0.000000      0.000000
      0.00000      0.00000      4.02844         0.000000     -0.000000     -0.000000
      0.00000      0.00000      1.34281        -0.000000      0.000000     -0.000000
 -----------------------------------------------------------------------------------
    total drift:                                0.000000      0.000000     -0.000000


--------------------------------------------------------------------------------------------------------



  FREE ENERGIE OF THE ION-ELECTRON SYSTEM (eV)
  ---------------------------------------------------
  free  energy   TOTEN  =       -23.45018591 eV

  energy  without entropy=      -23.44877103  energy(sigma->0) =      -23.44947847
 


--------------------------------------------------------------------------------------------------------


    POTLOK:  cpu time      0.4563: real time      0.4563


--------------------------------------------------------------------------------------------------------


     LOOP+:  cpu time     54.3793: real time     54.6158
    4ORBIT:  cpu time      0.0000: real time      0.0000



 total charge

# of ion       s       p       d       tot
------------------------------------------
    1        0.300   6.191   7.925  14.415
    2        0.300   6.191   7.925  14.415
    3        1.559   3.392   0.000   4.951
    4        1.559   3.392   0.000   4.951
--------------------------------------------------
tot          3.717  19.166  15.849  38.732



 magnetization (x)

# of ion       s       p       d       tot
------------------------------------------
    1       -0.000  -0.000   0.000   0.000
    2       -0.000  -0.000   0.000   0.000
    3        0.000   0.000   0.000   0.000
    4        0.000   0.000   0.000   0.000
--------------------------------------------------
tot          0.000   0.000   0.000   0.000
 

 total amount of memory used by VASP MPI-rank0    98379. kBytes
=======================================================================

   base      :      30000. kBytes
   nonl-proj :      29623. kBytes
   fftplans  :       8251. kBytes
   grid      :       6727. kBytes
   one-center:        124. kBytes
   wavefun   :      23654. kBytes
 
  
  
 General timing and accounting informations for this job:
 ========================================================
  
                  Total CPU time used (sec):       56.882
                            User time (sec):       54.846
                          System time (sec):        2.036
                         Elapsed time (sec):       59.105
  
                   Maximum memory used (kb):      375340.
                   Average memory used (kb):          N/A
  
                          Minor page faults:       447487
                          Major page faults:            1
                 Voluntary context switches:          546
