       N       E                     dE             d eps       ncg     rms          rms(c)
DAV:   1     0.634289654914E+03    0.63429E+03   -0.36974E+04  7384   0.191E+03
DAV:   2    -0.412578300953E+01   -0.63842E+03   -0.61473E+03  8284   0.523E+02
DAV:   3    -0.404966394785E+02   -0.36371E+02   -0.35962E+02  7836   0.128E+02
DAV:   4    -0.409926295815E+02   -0.49599E+00   -0.49518E+00  8032   0.160E+01
DAV:   5    -0.409980633011E+02   -0.54337E-02   -0.54332E-02  7724   0.170E+00    0.281E+01
DAV:   6    -0.356487571011E+02    0.53493E+01   -0.51532E+01  7716   0.655E+01    0.156E+01
DAV:   7    -0.322038655935E+02    0.34449E+01   -0.15725E+01  7524   0.360E+01    0.540E+00
DAV:   8    -0.321513012553E+02    0.52564E-01   -0.12758E+00  7656   0.669E+00    0.302E+00
DAV:   9    -0.321214581385E+02    0.29843E-01   -0.13079E-01  7832   0.326E+00    0.847E-01
DAV:  10    -0.321181456557E+02    0.33125E-02   -0.18063E-02  7652   0.129E+00    0.276E-01
DAV:  11    -0.321181451077E+02    0.54797E-06   -0.20337E-03  7640   0.367E-01    0.120E-01
DAV:  12    -0.321181016400E+02    0.43468E-04   -0.22590E-04  7748   0.984E-02    0.527E-02
DAV:  13    -0.321181171638E+02   -0.15524E-04   -0.81024E-05  7672   0.538E-02    0.125E-02
DAV:  14    -0.321181183640E+02   -0.12002E-05   -0.26707E-06  5888   0.123E-02    0.485E-03
DAV:  15    -0.321181179574E+02    0.40661E-06   -0.78040E-07  4576   0.723E-03
   1 F= -.33532137E+02 E0= -.33529626E+02  d E =-.502219E-02  mag=    -0.3282
