 vasp.6.4.3 19Mar24 (build Nov 27 2025 15:18:09) complex                         
 executed on              LinuxNV date 2026.06.04  16:45:42
 running    4 mpi-ranks, with    1 threads/rank, on    1 nodes
 distrk:  each k-point on    4 cores,    1 groups
 distr:  one band on NCORE=   1 cores,    4 groups
 OpenACC runtime initialized ...    0 GPUs detected


--------------------------------------------------------------------------------------------------------


 INCAR:
   SYSTEM = pddmc
   ENCUT = 600
   PREC = Accurate
   LASPH = .TRUE.
   ADDGRID = .TRUE.
   ISPIN = 2
   IVDW = 12
   EDIFF = 1e-06
   NELM = 200
   NELMIN = 5
   ALGO = Normal
   NCORE = 1
   LREAL = .FALSE.
   LWAVE = .FALSE.
   LCHARG = .FALSE.
   LORBIT = 11
   ISYM = 2
   IBRION = -1
   NSW = 0
   ISIF = 0
   ISMEAR = 0
   SIGMA = 0.05
   EDIFFG = -0.01

 POTCAR:    PAW_PBE Pd_pv 28Jan2005               
 POTCAR:    PAW_PBE O 08Apr2002                   
 -----------------------------------------------------------------------------
|                                                                             |
|           W    W    AA    RRRRR   N    N  II  N    N   GGGG   !!!           |
|           W    W   A  A   R    R  NN   N  II  NN   N  G    G  !!!           |
|           W    W  A    A  R    R  N N  N  II  N N  N  G       !!!           |
|           W WW W  AAAAAA  RRRRR   N  N N  II  N  N N  G  GGG   !            |
|           WW  WW  A    A  R   R   N   NN  II  N   NN  G    G                |
|           W    W  A    A  R    R  N    N  II  N    N   GGGG   !!!           |
|                                                                             |
|     You use a magnetic or noncollinear calculation, but did not specify     |
|     the initial magnetic moment with the MAGMOM tag. Note that a            |
|     default of 1 will be used for all atoms. This ferromagnetic setup       |
|     may break the symmetry of the crystal, in particular it may rule        |
|     out finding an antiferromagnetic solution. Thence, we recommend         |
|     setting the initial magnetic moment manually or verifying carefully     |
|     that this magnetic setup is desired.                                    |
|                                                                             |
 -----------------------------------------------------------------------------

 POTCAR:    PAW_PBE Pd_pv 28Jan2005               
   SHA256 =  3ce661545bbde58da9a95410dea32907db2844916708bcd35bbe03ee66324d7f Pd_pv/POTCAR          
   COPYR  = (c) Copyright 28Jan2005 Georg Kresse                                                    
   COPYR  = This file is part of the software VASP. Any use, copying, and all other rights are regul
   COPYR  = If you do not have a valid VASP license, you may not use, copy or distribute this file. 
   VRHFIN =Pd: 4p5s4d                                                                               
   LEXCH  = PE                                                                                      
   EATOM  =  2621.5550 eV,  192.6789 Ry                                                             
                                                                                                    
   TITEL  = PAW_PBE Pd_pv 28Jan2005                                                                 
   LULTRA =        F    use ultrasoft PP ?                                                          
   IUNSCR =        1    unscreen: 0-lin 1-nonlin 2-no                                               
   RPACOR =    2.250    partial core radius                                                         
   POMASS =  106.420; ZVAL   =   16.000    mass and valenz                                          
   RCORE  =    2.400    outmost cutoff radius                                                       
   RWIGS  =    2.300; RWIGS  =    1.217    wigner-seitz radius (au A)                               
   ENMAX  =  250.925; ENMIN  =  188.194 eV                                                          
   ICORE  =        3    local potential                                                             
   LCOR   =        T    correct aug charges                                                         
   LPAW   =        T    paw PP                                                                      
   EAUG   =  473.067                                                                                
   DEXC   =    0.000                                                                                
   RMAX   =    2.449    core radius for proj-oper                                                   
   RAUG   =    1.300    factor for augmentation sphere                                              
   RDEP   =    2.405    radius for radial grids                                                     
   RDEPT  =    1.966    core radius for aug-charge                                                  
                                                                                                    
   Atomic configuration                                                                             
   11 entries                                                                                       
     n  l   j            E        occ.                                                              
     1  0  0.50    -24164.6632   2.0000                                                             
     2  0  0.50     -3530.9218   2.0000                                                             
     2  1  1.50     -3165.6822   6.0000                                                             
     3  0  0.50      -639.4578   2.0000                                                             
     3  1  1.50      -519.4532   6.0000                                                             
     3  2  2.50      -328.9758  10.0000                                                             
     4  0  0.50       -88.7014   2.0000                                                             
     4  1  1.50       -54.4541   6.0000                                                             
     4  2  2.50        -6.6878   9.0000                                                             
     5  0  0.50        -4.3543   1.0000                                                             
     4  3  2.50        -1.3606   0.0000                                                             
   Description                                                                                      
     l       E           TYP  RCUT    TYP  RCUT                                                     
     1    -54.4540524     23  2.100                                                                 
     1      4.0817478     23  2.100                                                                 
     2     -6.6878326     23  2.400                                                                 
     2     -4.0817478     23  2.400                                                                 
     0     -4.3542962     23  2.400                                                                 
     0     13.6058260     23  2.400                                                                 
     3     -5.4423304     23  2.400                                                                 
  local pseudopotential read in
  partial core-charges read in
  partial kinetic energy density read in
  atomic valenz-charges read in
  non local Contribution for L=            1  read in
    real space projection operators read in
  non local Contribution for L=            1  read in
    real space projection operators read in
  non local Contribution for L=            2  read in
    real space projection operators read in
  non local Contribution for L=            2  read in
    real space projection operators read in
  non local Contribution for L=            0  read in
    real space projection operators read in
  non local Contribution for L=            0  read in
    real space projection operators read in
    PAW grid and wavefunctions read in
 
   number of l-projection  operators is LMAX  =            6
   number of lm-projection operators is LMMAX =           18
 
 POTCAR:    PAW_PBE O 08Apr2002                   
   SHA256 =  818f92134a0a090dccd8ba1447fa70422a3b330e708bb4f08108d8ae51209ddf O/POTCAR              
   COPYR  = (c) Copyright 08Apr2002 Georg Kresse                                                    
   COPYR  = This file is part of the software VASP. Any use, copying, and all other rights are regul
   COPYR  = If you do not have a valid VASP license, you may not use, copy or distribute this file. 
   VRHFIN =O: s2p4                                                                                  
   LEXCH  = PE                                                                                      
   EATOM  =   432.3788 eV,   31.7789 Ry                                                             
                                                                                                    
   TITEL  = PAW_PBE O 08Apr2002                                                                     
   LULTRA =        F    use ultrasoft PP ?                                                          
   IUNSCR =        1    unscreen: 0-lin 1-nonlin 2-no                                               
   RPACOR =    1.200    partial core radius                                                         
   POMASS =   16.000; ZVAL   =    6.000    mass and valenz                                          
   RCORE  =    1.520    outmost cutoff radius                                                       
   RWIGS  =    1.550; RWIGS  =    0.820    wigner-seitz radius (au A)                               
   ENMAX  =  400.000; ENMIN  =  300.000 eV                                                          
   ICORE  =        2    local potential                                                             
   LCOR   =        T    correct aug charges                                                         
   LPAW   =        T    paw PP                                                                      
   EAUG   =  605.392                                                                                
   DEXC   =    0.000                                                                                
   RMAX   =    1.553    core radius for proj-oper                                                   
   RAUG   =    1.300    factor for augmentation sphere                                              
   RDEP   =    1.550    radius for radial grids                                                     
   RDEPT  =    1.329    core radius for aug-charge                                                  
                                                                                                    
   Atomic configuration                                                                             
    4 entries                                                                                       
     n  l   j            E        occ.                                                              
     1  0  0.50      -514.6923   2.0000                                                             
     2  0  0.50       -23.9615   2.0000                                                             
     2  1  0.50        -9.0305   4.0000                                                             
     3  2  1.50        -9.5241   0.0000                                                             
   Description                                                                                      
     l       E           TYP  RCUT    TYP  RCUT                                                     
     0    -23.9615318     23  1.200                                                                 
     0     -9.5240782     23  1.200                                                                 
     1     -9.0304911     23  1.520                                                                 
     1      8.1634956     23  1.520                                                                 
     2     -9.5240782      7  1.500                                                                 
  local pseudopotential read in
  partial core-charges read in
  partial kinetic energy density read in
  kinetic energy density of atom read in
  atomic valenz-charges read in
  non local Contribution for L=            0  read in
    real space projection operators read in
  non local Contribution for L=            0  read in
    real space projection operators read in
  non local Contribution for L=            1  read in
    real space projection operators read in
  non local Contribution for L=            1  read in
    real space projection operators read in
    PAW grid and wavefunctions read in
 
   number of l-projection  operators is LMAX  =            4
   number of lm-projection operators is LMMAX =            8
 
  PAW_PBE Pd_pv 28Jan2005               :
 energy of atom  1       EATOM=-2621.5550
 kinetic energy error for atom=    0.0046 (will be added to EATOM!!)
  PAW_PBE O 08Apr2002                   :
 energy of atom  2       EATOM= -432.3788
 kinetic energy error for atom=    0.0168 (will be added to EATOM!!)
 
 
 POSCAR: Pd O
  positions in cartesian coordinates
  No initial velocities read in
 IVDW         = 12
 VDW_S6       =    1.0000
 VDW_S8       =    0.7875
 VDW_A1       =    0.4289
 VDW_A2       =    4.4407
 VDW_RADIUS   =   50.2022 A
 VDW_CNRADIUS =   21.1671 A


 exchange-correlation table for PE
   RHO(1)=    0.500       N(1)  =     2000
   RHO(2)=  100.500       N(2)  =     4000
 


--------------------------------------------------------------------------------------------------------


 ion  position               nearest neighbor table
   1  0.500  0.500  0.500-   3 1.97   4 1.97   5 2.00   6 2.00   5 2.00   6 2.00
   2  0.000  0.000  0.000-   5 1.97   6 1.97   3 2.00   4 2.00   3 2.00   4 2.00
   3  0.808  0.192  0.500-   1 1.97   2 2.00   2 2.00
   4  0.192  0.808  0.500-   1 1.97   2 2.00   2 2.00
   5  0.308  0.308  0.000-   2 1.97   1 2.00   1 2.00
   6  0.692  0.692  0.000-   2 1.97   1 2.00   1 2.00
 
  LATTYP: Found a simple tetragonal cell.
 ALAT       =     4.5222304600
 C/A-ratio  =     0.6957349162
  
  Lattice vectors:
  
 A1 = (   4.5222304600,   0.0000000000,   0.0000000000)
 A2 = (   0.0000000000,   4.5222304600,   0.0000000000)
 A3 = (   0.0000000000,   0.0000000000,   3.1462736300)


Analysis of symmetry for initial positions (statically):
=====================================================================
 Subroutine PRICEL returns:
 Original cell was already a primitive cell.
 

 Routine SETGRP: Setting up the symmetry group for a 
 simple tetragonal supercell.


 Subroutine GETGRP returns: Found 16 space group operations
 (whereof  8 operations were pure point group operations)
 out of a pool of 16 trial point group operations.


The static configuration has the point symmetry D_2h.
 The point group associated with its full space group is D_4h.


Analysis of symmetry for dynamics (positions and initial velocities):
=====================================================================
 Subroutine PRICEL returns:
 Original cell was already a primitive cell.
 

 Routine SETGRP: Setting up the symmetry group for a 
 simple tetragonal supercell.


 Subroutine GETGRP returns: Found 16 space group operations
 (whereof  8 operations were pure point group operations)
 out of a pool of 16 trial point group operations.


The dynamic configuration has the point symmetry D_2h.
 The point group associated with its full space group is D_4h.


Analysis of structural, dynamic, and magnetic symmetry:
=====================================================================
 Subroutine PRICEL returns:
 Original cell was already a primitive cell.
 

 Routine SETGRP: Setting up the symmetry group for a 
 simple tetragonal supercell.


 Subroutine GETGRP returns: Found 16 space group operations
 (whereof  8 operations were pure point group operations)
 out of a pool of 16 trial point group operations.


The overall configuration has the point symmetry D_2h.
 The point group associated with its full space group is D_4h.


 Subroutine INISYM returns: Found 16 space group operations
 (whereof  8 operations are pure point group operations),
 and found     1 'primitive' translations


----------------------------------------------------------------------------------------

                                     Primitive cell                                     

  volume of cell :      64.3431

  direct lattice vectors                    reciprocal lattice vectors
     4.522230460  0.000000000  0.000000000     0.221129818 -0.000000000  0.000000000
     0.000000000  4.522230460  0.000000000     0.000000000  0.221129818  0.000000000
     0.000000000  0.000000000  3.146273630    -0.000000000 -0.000000000  0.317836310

  length of vectors
     4.522230460  4.522230460  3.146273630     0.221129818  0.221129818  0.317836310

  position of ions in fractional coordinates (direct lattice)
     0.500000000  0.500000000  0.500000000
     0.000000000  0.000000000  0.000000000
     0.808151920  0.191848080  0.500000000
     0.191848080  0.808151920  0.500000000
     0.308151920  0.308151920  1.000000000
     0.691848080  0.691848080  1.000000000

  ion indices of the primitive-cell ions
   primitive index   ion index
                 1           1
                 2           2
                 3           3
                 4           4
                 5           5
                 6           6

----------------------------------------------------------------------------------------

 
 
 KPOINTS: Automatic mesh                          

Automatic generation of k-mesh.
 Grid dimensions read from file:
 generate k-points for:    6    6    8

 Generating k-lattice:

  Cartesian coordinates                     Fractional coordinates (reciprocal lattice)
     0.036854970 -0.000000000  0.000000000     0.166666667 -0.000000000  0.000000000
     0.000000000  0.036854970  0.000000000     0.000000000  0.166666667  0.000000000
    -0.000000000 -0.000000000  0.039729539     0.000000000 -0.000000000  0.125000000

  Length of vectors
     0.036854970  0.036854970  0.039729539

  Shift w.r.t. Gamma in fractional coordinates (k-lattice)
     0.000000000  0.000000000  0.000000000

 
 Subroutine IBZKPT returns following result:
 ===========================================
 
 Found     50 irreducible k-points:
 
 Following reciprocal coordinates:
            Coordinates               Weight
  0.000000  0.000000  0.000000      1.000000
  0.166667  0.000000  0.000000      4.000000
  0.333333  0.000000  0.000000      4.000000
  0.500000  0.000000  0.000000      2.000000
  0.166667  0.166667  0.000000      4.000000
  0.333333  0.166667  0.000000      8.000000
  0.500000  0.166667  0.000000      4.000000
  0.333333  0.333333  0.000000      4.000000
  0.500000  0.333333  0.000000      4.000000
  0.500000  0.500000  0.000000      1.000000
  0.000000  0.000000  0.125000      2.000000
  0.166667  0.000000  0.125000      8.000000
  0.333333  0.000000  0.125000      8.000000
  0.500000  0.000000  0.125000      4.000000
  0.166667  0.166667  0.125000      8.000000
  0.333333  0.166667  0.125000     16.000000
  0.500000  0.166667  0.125000      8.000000
  0.333333  0.333333  0.125000      8.000000
  0.500000  0.333333  0.125000      8.000000
  0.500000  0.500000  0.125000      2.000000
  0.000000  0.000000  0.250000      2.000000
  0.166667  0.000000  0.250000      8.000000
  0.333333  0.000000  0.250000      8.000000
  0.500000  0.000000  0.250000      4.000000
  0.166667  0.166667  0.250000      8.000000
  0.333333  0.166667  0.250000     16.000000
  0.500000  0.166667  0.250000      8.000000
  0.333333  0.333333  0.250000      8.000000
  0.500000  0.333333  0.250000      8.000000
  0.500000  0.500000  0.250000      2.000000
  0.000000  0.000000  0.375000      2.000000
  0.166667  0.000000  0.375000      8.000000
  0.333333  0.000000  0.375000      8.000000
  0.500000  0.000000  0.375000      4.000000
  0.166667  0.166667  0.375000      8.000000
  0.333333  0.166667  0.375000     16.000000
  0.500000  0.166667  0.375000      8.000000
  0.333333  0.333333  0.375000      8.000000
  0.500000  0.333333  0.375000      8.000000
  0.500000  0.500000  0.375000      2.000000
  0.000000  0.000000  0.500000      1.000000
  0.166667  0.000000  0.500000      4.000000
  0.333333  0.000000  0.500000      4.000000
  0.500000  0.000000  0.500000      2.000000
  0.166667  0.166667  0.500000      4.000000
  0.333333  0.166667  0.500000      8.000000
  0.500000  0.166667  0.500000      4.000000
  0.333333  0.333333  0.500000      4.000000
  0.500000  0.333333  0.500000      4.000000
  0.500000  0.500000  0.500000      1.000000
 
 Following cartesian coordinates:
            Coordinates               Weight
  0.000000  0.000000  0.000000      1.000000
  0.036855  0.000000  0.000000      4.000000
  0.073710  0.000000  0.000000      4.000000
  0.110565  0.000000  0.000000      2.000000
  0.036855  0.036855  0.000000      4.000000
  0.073710  0.036855  0.000000      8.000000
  0.110565  0.036855  0.000000      4.000000
  0.073710  0.073710  0.000000      4.000000
  0.110565  0.073710  0.000000      4.000000
  0.110565  0.110565  0.000000      1.000000
  0.000000  0.000000  0.039730      2.000000
  0.036855  0.000000  0.039730      8.000000
  0.073710  0.000000  0.039730      8.000000
  0.110565  0.000000  0.039730      4.000000
  0.036855  0.036855  0.039730      8.000000
  0.073710  0.036855  0.039730     16.000000
  0.110565  0.036855  0.039730      8.000000
  0.073710  0.073710  0.039730      8.000000
  0.110565  0.073710  0.039730      8.000000
  0.110565  0.110565  0.039730      2.000000
  0.000000  0.000000  0.079459      2.000000
  0.036855  0.000000  0.079459      8.000000
  0.073710  0.000000  0.079459      8.000000
  0.110565  0.000000  0.079459      4.000000
  0.036855  0.036855  0.079459      8.000000
  0.073710  0.036855  0.079459     16.000000
  0.110565  0.036855  0.079459      8.000000
  0.073710  0.073710  0.079459      8.000000
  0.110565  0.073710  0.079459      8.000000
  0.110565  0.110565  0.079459      2.000000
  0.000000  0.000000  0.119189      2.000000
  0.036855  0.000000  0.119189      8.000000
  0.073710  0.000000  0.119189      8.000000
  0.110565  0.000000  0.119189      4.000000
  0.036855  0.036855  0.119189      8.000000
  0.073710  0.036855  0.119189     16.000000
  0.110565  0.036855  0.119189      8.000000
  0.073710  0.073710  0.119189      8.000000
  0.110565  0.073710  0.119189      8.000000
  0.110565  0.110565  0.119189      2.000000
  0.000000  0.000000  0.158918      1.000000
  0.036855  0.000000  0.158918      4.000000
  0.073710  0.000000  0.158918      4.000000
  0.110565  0.000000  0.158918      2.000000
  0.036855  0.036855  0.158918      4.000000
  0.073710  0.036855  0.158918      8.000000
  0.110565  0.036855  0.158918      4.000000
  0.073710  0.073710  0.158918      4.000000
  0.110565  0.073710  0.158918      4.000000
  0.110565  0.110565  0.158918      1.000000
 


--------------------------------------------------------------------------------------------------------




 Dimension of arrays:
   k-points           NKPTS =     50   k-points in BZ     NKDIM =     50   number of bands    NBANDS=     36
   number of dos      NEDOS =    301   number of ions     NIONS =      6
   non local maximal  LDIM  =      6   non local SUM 2l+1 LMDIM =     18
   total plane-waves  NPLWV =  36288
   max r-space proj   IRMAX =      1   max aug-charges    IRDMAX= 180807
   dimension x,y,z NGX =    36 NGY =   36 NGZ =   28
   dimension x,y,z NGXF=    72 NGYF=   72 NGZF=   56
   support grid    NGXF=   144 NGYF=  144 NGZF=  112
   ions per type =               2   4
   NGX,Y,Z   is equivalent  to a cutoff of  13.23, 13.23, 14.79 a.u.
   NGXF,Y,Z  is equivalent  to a cutoff of  26.47, 26.47, 29.59 a.u.

 SYSTEM =  pddmc                                   
 POSCAR =  Pd O                                    

 Startparameter for this run:
   NWRITE =      2    write-flag & timer
   PREC   = accura    normal or accurate (medium, high low for compatibility)
   ISTART =      0    job   : 0-new  1-cont  2-samecut
   ICHARG =      2    charge: 1-file 2-atom 10-const
   ISPIN  =      2    spin polarized calculation?
   LNONCOLLINEAR =      F non collinear calculations
   LSORBIT =      F    spin-orbit coupling
   INIWAV =      1    electr: 0-lowe 1-rand  2-diag
   LASPH  =      T    aspherical Exc in radial PAW
 Electronic Relaxation 1
   ENCUT  =  600.0 eV  44.10 Ry    6.64 a.u.   9.03  9.03  6.28*2*pi/ulx,y,z
   ENINI  =  600.0     initial cutoff
   ENAUG  =  605.4 eV  augmentation charge cutoff
   NELM   =    200;   NELMIN=  5; NELMDL= -5     # of ELM steps 
   EDIFF  = 0.1E-05   stopping-criterion for ELM
   LREAL  =      F    real-space projection
   NLSPLINE    = F    spline interpolate recip. space projectors
   LCOMPAT=      F    compatible to vasp.4.4
   GGA_COMPAT  = T    GGA compatible to vasp.4.4-vasp.4.6
   LMAXPAW     = -100 max onsite density
   LMAXMIX     =    2 max onsite mixed and CHGCAR
   VOSKOWN=      0    Vosko Wilk Nusair interpolation
   ROPT   =    0.00000   0.00000
 Ionic relaxation
   EDIFFG = -.1E-01   stopping-criterion for IOM
   NSW    =      0    number of steps for IOM
   NBLOCK =      1;   KBLOCK =      1    inner block; outer block 
   IBRION =     -1    ionic relax: 0-MD 1-quasi-New 2-CG
   NFREE  =      0    steps in history (QN), initial steepest desc. (CG)
   ISIF   =      0    stress and relaxation
   IWAVPR =     10    prediction:  0-non 1-charg 2-wave 3-comb
   ISYM   =      2    0-nonsym 1-usesym 2-fastsym
   LCORR  =      T    Harris-Foulkes like correction to forces

   POTIM  = 0.5000    time-step for ionic-motion
   TEIN   =    0.0    initial temperature
   TEBEG  =    0.0;   TEEND  =   0.0 temperature during run
   SMASS  =  -3.00    Nose mass-parameter (am)
   estimated Nose-frequenzy (Omega)   =  0.10E-29 period in steps = 0.13E+47 mass=  -0.467E-27a.u.
   SCALEE = 1.0000    scale energy and forces
   NPACO  =    256;   APACO  = 10.0  distance and # of slots for P.C.
   PSTRESS=    0.0 pullay stress

  Mass of Ions in am
   POMASS = 106.42 16.00
  Ionic Valenz
   ZVAL   =  16.00  6.00
  Atomic Wigner-Seitz radii
   RWIGS  =  -1.00 -1.00
  virtual crystal weights 
   VCA    =   1.00  1.00
   NELECT =      56.0000    total number of electrons
   NUPDOWN=      -1.0000    fix difference up-down

 DOS related values:
   EMIN   =  10.00;   EMAX   =-10.00  energy-range for DOS
   EFERMI =   0.00;   METHOD = LEGACY      
   ISMEAR =     0;   SIGMA  =   0.05  broadening in eV -4-tet -1-fermi 0-gaus

 Electronic relaxation 2 (details)
   IALGO  =     38    algorithm
   LDIAG  =      T    sub-space diagonalisation (order eigenvalues)
   LSUBROT=      F    optimize rotation matrix (better conditioning)
   TURBO    =      0    0=normal 1=particle mesh
   IRESTART =      0    0=no restart 2=restart with 2 vectors
   NREBOOT  =      0    no. of reboots
   NMIN     =      0    reboot dimension
   EREF     =   0.00    reference energy to select bands
   IMIX   =      4    mixing-type and parameters
     AMIX     =   0.40;   BMIX     =  1.00
     AMIX_MAG =   1.60;   BMIX_MAG =  1.00
     AMIN     =   0.10
     WC   =   100.;   INIMIX=   1;  MIXPRE=   1;  MAXMIX= -45

 Intra band minimization:
   WEIMIN = 0.0000     energy-eigenvalue tresh-hold
   EBREAK =  0.69E-08  absolut break condition
   DEPER  =   0.30     relativ break condition  

   TIME   =   0.40     timestep for ELM

  volume/ion in A,a.u.               =      10.72        72.37
  Fermi-wavevector in a.u.,A,eV,Ry     =   1.563040  2.953718 33.240331  2.443095
  Thomas-Fermi vector in A             =   2.665870
 
 Write flags
   LWAVE        =      F    write WAVECAR
   LDOWNSAMPLE  =      F    k-point downsampling of WAVECAR
   LCHARG       =      F    write CHGCAR
   LVTOT        =      F    write LOCPOT, total local potential
   LVHAR        =      F    write LOCPOT, Hartree potential only
   WRT_POTENTIAL= false  ! write potential to hdf5 file
   LELF         =      F    write electronic localiz. function (ELF)
   LORBIT       =     11    0 simple, 1 ext, 2 COOP (PROOUT), +10 PAW based schemes


 Dipole corrections
   LMONO      =      F    monopole corrections only (constant potential shift)
   LDIPOL     =      F    correct potential (dipole corrections)
   IDIPOL     =      0    1-x, 2-y, 3-z, 4-all directions 
   EPSILON    =  1.0000000 bulk dielectric constant
   LVACPOTAV  =      F  vacuum potentials using an averaging scheme for the charge density
   VACPOTFLAT =  0.1000000 required flatness to determine vacuum potential
 Exchange correlation treatment:
   GGA     = PE    functional components
   XC_C    = 1    coefficients multiplying the functional components
   LIBXC   =     F    Libxc                    
   VOSKOWN =     0    Vosko Wilk Nusair interpolation
   LHFCALC =     F    Hartree Fock is set to
   LHFONE  =     F    Hartree Fock one center treatment
   AEXX    =    0.0000 exact exchange contribution

 Parameters of functionals:
   PE:
     No parameter
 
 Van der Waals corrections
   IVDW    =    12    specifies the selected vdW correction

 Linear response parameters
   LEPSILON=     F    determine dielectric tensor
   LRPA    =     F    only Hartree local field effects (RPA)
   LNABLA  =     F    use nabla operator in PAW spheres
   LVEL    =     F    velocity operator in full k-point grid
   CSHIFT  =0.1000    complex shift for real part using Kramers Kronig
   OMEGAMAX=  -1.0    maximum frequency
   DEG_THRESHOLD= 0.2000000E-02 threshold for treating states as degnerate
   RTIME   =   -0.100 relaxation time in fs
  (WPLASMAI=    0.000 imaginary part of plasma frequency in eV, 0.658/RTIME)
   DFIELD  = 0.0000000 0.0000000 0.0000000 field for delta impulse in time
 
  Optional k-point grid parameters
   LKPOINTS_OPT  =     F    use optional k-point grid
   KPOINTS_OPT_MODE=     1    mode for optional k-point grid
 
 Orbital magnetization related:
   ORBITALMAG=     F  switch on orbital magnetization
   LCHIMAG   =     F  perturbation theory with respect to B field
   DQ        =  0.001000  dq finite difference perturbation B field
   LLRAUG    =     F  two centre corrections for induced B field
   LBONE     =     F  B-component reconstruction in AE one-centre
   LVGVCALC  =     T  calculate vGv susceptibility
   LVGVAPPL  =     F  apply vGv susceptibility instead of pGv for G=0

 Random number generation:
   RANDOM_GENERATOR = DEFAULT
   PCG_SEED         = not used


--------------------------------------------------------------------------------------------------------


 Static calculation
 charge density and potential will be updated during run
 spin polarized calculation
 Variant of blocked Davidson
 Davidson routine will perform the subspace rotation
 perform sub-space diagonalisation
    after iterative eigenvector-optimisation
 modified Broyden-mixing scheme, WC =      100.0
 initial mixing is a Kerker type mixing with AMIX =  0.4000 and BMIX =      1.0000
 Hartree-type preconditioning will be used
 using additional bands             8
 reciprocal scheme for non local part
 use partial core corrections
 calculate Harris-corrections to forces 
   (improved forces if not selfconsistent)
 use gradient corrections 
 use of overlap-Matrix (Vanderbilt PP)
 Gauss-broadening in eV      SIGMA  =   0.05


--------------------------------------------------------------------------------------------------------


  energy-cutoff  :      600.00
  volume of cell :       64.34
      direct lattice vectors                 reciprocal lattice vectors
     4.522230460  0.000000000  0.000000000     0.221129818 -0.000000000  0.000000000
     0.000000000  4.522230460  0.000000000     0.000000000  0.221129818  0.000000000
     0.000000000  0.000000000  3.146273630    -0.000000000 -0.000000000  0.317836310

  length of vectors
     4.522230460  4.522230460  3.146273630     0.221129818  0.221129818  0.317836310


 
 k-points in units of 2pi/SCALE and weight: Automatic mesh                          
   0.00000000  0.00000000  0.00000000       0.003
   0.03685497  0.00000000  0.00000000       0.014
   0.07370994  0.00000000  0.00000000       0.014
   0.11056491  0.00000000  0.00000000       0.007
   0.03685497  0.03685497  0.00000000       0.014
   0.07370994  0.03685497  0.00000000       0.028
   0.11056491  0.03685497  0.00000000       0.014
   0.07370994  0.07370994  0.00000000       0.014
   0.11056491  0.07370994  0.00000000       0.014
   0.11056491  0.11056491  0.00000000       0.003
   0.00000000  0.00000000  0.03972954       0.007
   0.03685497  0.00000000  0.03972954       0.028
   0.07370994  0.00000000  0.03972954       0.028
   0.11056491  0.00000000  0.03972954       0.014
   0.03685497  0.03685497  0.03972954       0.028
   0.07370994  0.03685497  0.03972954       0.056
   0.11056491  0.03685497  0.03972954       0.028
   0.07370994  0.07370994  0.03972954       0.028
   0.11056491  0.07370994  0.03972954       0.028
   0.11056491  0.11056491  0.03972954       0.007
   0.00000000  0.00000000  0.07945908       0.007
   0.03685497  0.00000000  0.07945908       0.028
   0.07370994  0.00000000  0.07945908       0.028
   0.11056491  0.00000000  0.07945908       0.014
   0.03685497  0.03685497  0.07945908       0.028
   0.07370994  0.03685497  0.07945908       0.056
   0.11056491  0.03685497  0.07945908       0.028
   0.07370994  0.07370994  0.07945908       0.028
   0.11056491  0.07370994  0.07945908       0.028
   0.11056491  0.11056491  0.07945908       0.007
   0.00000000  0.00000000  0.11918862       0.007
   0.03685497  0.00000000  0.11918862       0.028
   0.07370994  0.00000000  0.11918862       0.028
   0.11056491  0.00000000  0.11918862       0.014
   0.03685497  0.03685497  0.11918862       0.028
   0.07370994  0.03685497  0.11918862       0.056
   0.11056491  0.03685497  0.11918862       0.028
   0.07370994  0.07370994  0.11918862       0.028
   0.11056491  0.07370994  0.11918862       0.028
   0.11056491  0.11056491  0.11918862       0.007
   0.00000000  0.00000000  0.15891815       0.003
   0.03685497  0.00000000  0.15891815       0.014
   0.07370994  0.00000000  0.15891815       0.014
   0.11056491  0.00000000  0.15891815       0.007
   0.03685497  0.03685497  0.15891815       0.014
   0.07370994  0.03685497  0.15891815       0.028
   0.11056491  0.03685497  0.15891815       0.014
   0.07370994  0.07370994  0.15891815       0.014
   0.11056491  0.07370994  0.15891815       0.014
   0.11056491  0.11056491  0.15891815       0.003
 
 k-points in reciprocal lattice and weights: Automatic mesh                          
   0.00000000  0.00000000  0.00000000       0.003
   0.16666667  0.00000000  0.00000000       0.014
   0.33333333  0.00000000  0.00000000       0.014
   0.50000000  0.00000000  0.00000000       0.007
   0.16666667  0.16666667  0.00000000       0.014
   0.33333333  0.16666667  0.00000000       0.028
   0.50000000  0.16666667  0.00000000       0.014
   0.33333333  0.33333333  0.00000000       0.014
   0.50000000  0.33333333  0.00000000       0.014
   0.50000000  0.50000000  0.00000000       0.003
   0.00000000  0.00000000  0.12500000       0.007
   0.16666667  0.00000000  0.12500000       0.028
   0.33333333  0.00000000  0.12500000       0.028
   0.50000000  0.00000000  0.12500000       0.014
   0.16666667  0.16666667  0.12500000       0.028
   0.33333333  0.16666667  0.12500000       0.056
   0.50000000  0.16666667  0.12500000       0.028
   0.33333333  0.33333333  0.12500000       0.028
   0.50000000  0.33333333  0.12500000       0.028
   0.50000000  0.50000000  0.12500000       0.007
   0.00000000  0.00000000  0.25000000       0.007
   0.16666667  0.00000000  0.25000000       0.028
   0.33333333  0.00000000  0.25000000       0.028
   0.50000000  0.00000000  0.25000000       0.014
   0.16666667  0.16666667  0.25000000       0.028
   0.33333333  0.16666667  0.25000000       0.056
   0.50000000  0.16666667  0.25000000       0.028
   0.33333333  0.33333333  0.25000000       0.028
   0.50000000  0.33333333  0.25000000       0.028
   0.50000000  0.50000000  0.25000000       0.007
   0.00000000  0.00000000  0.37500000       0.007
   0.16666667  0.00000000  0.37500000       0.028
   0.33333333  0.00000000  0.37500000       0.028
   0.50000000  0.00000000  0.37500000       0.014
   0.16666667  0.16666667  0.37500000       0.028
   0.33333333  0.16666667  0.37500000       0.056
   0.50000000  0.16666667  0.37500000       0.028
   0.33333333  0.33333333  0.37500000       0.028
   0.50000000  0.33333333  0.37500000       0.028
   0.50000000  0.50000000  0.37500000       0.007
   0.00000000  0.00000000  0.50000000       0.003
   0.16666667  0.00000000  0.50000000       0.014
   0.33333333  0.00000000  0.50000000       0.014
   0.50000000  0.00000000  0.50000000       0.007
   0.16666667  0.16666667  0.50000000       0.014
   0.33333333  0.16666667  0.50000000       0.028
   0.50000000  0.16666667  0.50000000       0.014
   0.33333333  0.33333333  0.50000000       0.014
   0.50000000  0.33333333  0.50000000       0.014
   0.50000000  0.50000000  0.50000000       0.003
 
 position of ions in fractional coordinates (direct lattice) 
   0.50000000  0.50000000  0.50000000
   0.00000000  0.00000000  0.00000000
   0.80815192  0.19184808  0.50000000
   0.19184808  0.80815192  0.50000000
   0.30815192  0.30815192  0.00000000
   0.69184808  0.69184808  0.00000000
 
 position of ions in cartesian coordinates  (Angst):
   2.26111523  2.26111523  1.57313682
   0.00000000  0.00000000  0.00000000
   3.65464923  0.86758123  1.57313682
   0.86758123  3.65464923  1.57313682
   1.39353400  1.39353400  0.00000000
   3.12869646  3.12869646  0.00000000
 


--------------------------------------------------------------------------------------------------------


 k-point     1 :   0.0000 0.0000 0.0000  plane waves:    2113
 k-point     2 :   0.1667 0.0000 0.0000  plane waves:    2134
 k-point     3 :   0.3333 0.0000 0.0000  plane waves:    2154
 k-point     4 :   0.5000 0.0000 0.0000  plane waves:    2162
 k-point     5 :   0.1667 0.1667 0.0000  plane waves:    2153
 k-point     6 :   0.3333 0.1667 0.0000  plane waves:    2159
 k-point     7 :   0.5000 0.1667 0.0000  plane waves:    2148
 k-point     8 :   0.3333 0.3333 0.0000  plane waves:    2155
 k-point     9 :   0.5000 0.3333 0.0000  plane waves:    2148
 k-point    10 :   0.5000 0.5000 0.0000  plane waves:    2184
 k-point    11 :   0.0000 0.0000 0.1250  plane waves:    2137
 k-point    12 :   0.1667 0.0000 0.1250  plane waves:    2136
 k-point    13 :   0.3333 0.0000 0.1250  plane waves:    2150
 k-point    14 :   0.5000 0.0000 0.1250  plane waves:    2156
 k-point    15 :   0.1667 0.1667 0.1250  plane waves:    2149
 k-point    16 :   0.3333 0.1667 0.1250  plane waves:    2152
 k-point    17 :   0.5000 0.1667 0.1250  plane waves:    2150
 k-point    18 :   0.3333 0.3333 0.1250  plane waves:    2155
 k-point    19 :   0.5000 0.3333 0.1250  plane waves:    2156
 k-point    20 :   0.5000 0.5000 0.1250  plane waves:    2156
 k-point    21 :   0.0000 0.0000 0.2500  plane waves:    2133
 k-point    22 :   0.1667 0.0000 0.2500  plane waves:    2134
 k-point    23 :   0.3333 0.0000 0.2500  plane waves:    2141
 k-point    24 :   0.5000 0.0000 0.2500  plane waves:    2144
 k-point    25 :   0.1667 0.1667 0.2500  plane waves:    2140
 k-point    26 :   0.3333 0.1667 0.2500  plane waves:    2145
 k-point    27 :   0.5000 0.1667 0.2500  plane waves:    2150
 k-point    28 :   0.3333 0.3333 0.2500  plane waves:    2150
 k-point    29 :   0.5000 0.3333 0.2500  plane waves:    2160
 k-point    30 :   0.5000 0.5000 0.2500  plane waves:    2156
 k-point    31 :   0.0000 0.0000 0.3750  plane waves:    2156
 k-point    32 :   0.1667 0.0000 0.3750  plane waves:    2136
 k-point    33 :   0.3333 0.0000 0.3750  plane waves:    2148
 k-point    34 :   0.5000 0.0000 0.3750  plane waves:    2140
 k-point    35 :   0.1667 0.1667 0.3750  plane waves:    2138
 k-point    36 :   0.3333 0.1667 0.3750  plane waves:    2147
 k-point    37 :   0.5000 0.1667 0.3750  plane waves:    2148
 k-point    38 :   0.3333 0.3333 0.3750  plane waves:    2156
 k-point    39 :   0.5000 0.3333 0.3750  plane waves:    2144
 k-point    40 :   0.5000 0.5000 0.3750  plane waves:    2132
 k-point    41 :   0.0000 0.0000 0.5000  plane waves:    2148
 k-point    42 :   0.1667 0.0000 0.5000  plane waves:    2158
 k-point    43 :   0.3333 0.0000 0.5000  plane waves:    2148
 k-point    44 :   0.5000 0.0000 0.5000  plane waves:    2152
 k-point    45 :   0.1667 0.1667 0.5000  plane waves:    2156
 k-point    46 :   0.3333 0.1667 0.5000  plane waves:    2148
 k-point    47 :   0.5000 0.1667 0.5000  plane waves:    2132
 k-point    48 :   0.3333 0.3333 0.5000  plane waves:    2152
 k-point    49 :   0.5000 0.3333 0.5000  plane waves:    2128
 k-point    50 :   0.5000 0.5000 0.5000  plane waves:    2144

 maximum and minimum number of plane-waves per node :      2184     2113

 maximum number of plane-waves:      2184
 maximum index in each direction: 
   IXMAX=    9   IYMAX=    9   IZMAX=    6
   IXMIN=   -9   IYMIN=   -9   IZMIN=   -6


 serial   3D FFT for wavefunctions
 parallel 3D FFT for charge:
    minimum data exchange during FFTs selected (reduces bandwidth)


 total amount of memory used by VASP MPI-rank0   114117. kBytes
=======================================================================

   base      :      30000. kBytes
   nonl-proj :      31659. kBytes
   fftplans  :      10928. kBytes
   grid      :       8916. kBytes
   one-center:        186. kBytes
   wavefun   :      32428. kBytes
 
     INWAV:  cpu time      0.0000: real time      0.0001
 Broyden mixing: mesh for mixing (old mesh)
   NGX = 19   NGY = 19   NGZ = 13
  (NGX  = 72   NGY  = 72   NGZ  = 56)
  gives a total of   4693 points

 initial charge density was supplied:
 charge density of overlapping atoms calculated
 number of electron      56.0000000 magnetization       6.0000000
 keeping initial charge density in first step


--------------------------------------------------------------------------------------------------------


 Maximum index for augmentation-charges         43861 (set IRDMAX)


--------------------------------------------------------------------------------------------------------


 First call to EWALD:  gamma=   0.442
 Maximum number of real-space cells 2x 2x 3
 Maximum number of reciprocal cells 3x 3x 2

    FEWALD:  cpu time      0.0004: real time      0.0004


--------------------------------------- Ionic step        1  -------------------------------------------




--------------------------------------- Iteration      1(   1)  ---------------------------------------


    POTLOK:  cpu time      0.0557: real time      0.0559
    SETDIJ:  cpu time      0.5151: real time      0.6222
     EDDAV:  cpu time      4.1728: real time      4.3492
       DOS:  cpu time      0.0006: real time      0.0006
    --------------------------------------------
      LOOP:  cpu time      4.7442: real time      5.0279

 eigenvalue-minimisations  :  7384
 total energy-change (2. order) : 0.6342897E+03  (-0.3697383E+04)
 number of electron      56.0000000 magnetization       6.0000000
 augmentation part       56.0000000 magnetization       6.0000000

 Free energy of the ion-electron system (eV)
  ---------------------------------------------------
  alpha Z        PSCENC =       302.45619847
  Ewald energy   TEWEN  =     -5214.09126118
  -Hartree energ DENC   =     -1860.07067583
  -exchange      EXHF   =         0.00000000
  -V(xc)+E(xc)   XCENC  =       277.13147629
  PAW double counting   =      5901.46612542    -5850.99266113
  entropy T*S    EENTRO =        -0.00221928
  eigenvalues    EBANDS =       105.84402812
  atomic energy  EATOM  =      6972.54864403
  Solvation  Ediel_sol  =         0.00000000
  ---------------------------------------------------
  free energy    TOTEN  =       634.28965491 eV

  energy without entropy =      634.29187419  energy(sigma->0) =      634.29076455


--------------------------------------------------------------------------------------------------------




--------------------------------------- Iteration      1(   2)  ---------------------------------------


     EDDAV:  cpu time      4.3467: real time      4.4499
       DOS:  cpu time      0.0005: real time      0.0005
    --------------------------------------------
      LOOP:  cpu time      4.3473: real time      4.4505

 eigenvalue-minimisations  :  8284
 total energy-change (2. order) :-0.6384154E+03  (-0.6147281E+03)
 number of electron      56.0000000 magnetization       6.0000000
 augmentation part       56.0000000 magnetization       6.0000000

 Free energy of the ion-electron system (eV)
  ---------------------------------------------------
  alpha Z        PSCENC =       302.45619847
  Ewald energy   TEWEN  =     -5214.09126118
  -Hartree energ DENC   =     -1860.07067583
  -exchange      EXHF   =         0.00000000
  -V(xc)+E(xc)   XCENC  =       277.13147629
  PAW double counting   =      5901.46612542    -5850.99266113
  entropy T*S    EENTRO =        -0.00340206
  eigenvalues    EBANDS =      -532.57022702
  atomic energy  EATOM  =      6972.54864403
  Solvation  Ediel_sol  =         0.00000000
  ---------------------------------------------------
  free energy    TOTEN  =        -4.12578301 eV

  energy without entropy =       -4.12238095  energy(sigma->0) =       -4.12408198


--------------------------------------------------------------------------------------------------------




--------------------------------------- Iteration      1(   3)  ---------------------------------------


     EDDAV:  cpu time      4.1519: real time      4.2605
       DOS:  cpu time      0.0005: real time      0.0005
    --------------------------------------------
      LOOP:  cpu time      4.1524: real time      4.2610

 eigenvalue-minimisations  :  7836
 total energy-change (2. order) :-0.3637086E+02  (-0.3596214E+02)
 number of electron      56.0000000 magnetization       6.0000000
 augmentation part       56.0000000 magnetization       6.0000000

 Free energy of the ion-electron system (eV)
  ---------------------------------------------------
  alpha Z        PSCENC =       302.45619847
  Ewald energy   TEWEN  =     -5214.09126118
  -Hartree energ DENC   =     -1860.07067583
  -exchange      EXHF   =         0.00000000
  -V(xc)+E(xc)   XCENC  =       277.13147629
  PAW double counting   =      5901.46612542    -5850.99266113
  entropy T*S    EENTRO =        -0.00403862
  eigenvalues    EBANDS =      -568.94044693
  atomic energy  EATOM  =      6972.54864403
  Solvation  Ediel_sol  =         0.00000000
  ---------------------------------------------------
  free energy    TOTEN  =       -40.49663948 eV

  energy without entropy =      -40.49260086  energy(sigma->0) =      -40.49462017


--------------------------------------------------------------------------------------------------------




--------------------------------------- Iteration      1(   4)  ---------------------------------------


     EDDAV:  cpu time      4.2128: real time      4.4161
       DOS:  cpu time      0.0005: real time      0.0005
    --------------------------------------------
      LOOP:  cpu time      4.2133: real time      4.4166

 eigenvalue-minimisations  :  8032
 total energy-change (2. order) :-0.4959901E+00  (-0.4951768E+00)
 number of electron      56.0000000 magnetization       6.0000000
 augmentation part       56.0000000 magnetization       6.0000000

 Free energy of the ion-electron system (eV)
  ---------------------------------------------------
  alpha Z        PSCENC =       302.45619847
  Ewald energy   TEWEN  =     -5214.09126118
  -Hartree energ DENC   =     -1860.07067583
  -exchange      EXHF   =         0.00000000
  -V(xc)+E(xc)   XCENC  =       277.13147629
  PAW double counting   =      5901.46612542    -5850.99266113
  entropy T*S    EENTRO =        -0.00411862
  eigenvalues    EBANDS =      -569.43635703
  atomic energy  EATOM  =      6972.54864403
  Solvation  Ediel_sol  =         0.00000000
  ---------------------------------------------------
  free energy    TOTEN  =       -40.99262958 eV

  energy without entropy =      -40.98851096  energy(sigma->0) =      -40.99057027


--------------------------------------------------------------------------------------------------------




--------------------------------------- Iteration      1(   5)  ---------------------------------------


     EDDAV:  cpu time      4.0984: real time      4.1017
       DOS:  cpu time      0.0005: real time      0.0005
    CHARGE:  cpu time      0.3775: real time      0.3780
    MIXING:  cpu time      0.0016: real time      0.0016
    --------------------------------------------
      LOOP:  cpu time      4.4780: real time      4.4817

 eigenvalue-minimisations  :  7724
 total energy-change (2. order) :-0.5433720E-02  (-0.5433159E-02)
 number of electron      56.0000001 magnetization       0.0868311
 augmentation part       16.7771626 magnetization      -0.0633901

 Broyden mixing:
  rms(total) = 0.28119E+01    rms(broyden)= 0.28118E+01
  rms(prec ) = 0.53309E+01
  weight for this iteration     100.00

 Free energy of the ion-electron system (eV)
  ---------------------------------------------------
  alpha Z        PSCENC =       302.45619847
  Ewald energy   TEWEN  =     -5214.09126118
  -Hartree energ DENC   =     -1860.07067583
  -exchange      EXHF   =         0.00000000
  -V(xc)+E(xc)   XCENC  =       277.13147629
  PAW double counting   =      5901.46612542    -5850.99266113
  entropy T*S    EENTRO =        -0.00412073
  eigenvalues    EBANDS =      -569.44178864
  atomic energy  EATOM  =      6972.54864403
  Solvation  Ediel_sol  =         0.00000000
  ---------------------------------------------------
  free energy    TOTEN  =       -40.99806330 eV

  energy without entropy =      -40.99394257  energy(sigma->0) =      -40.99600294


--------------------------------------------------------------------------------------------------------




--------------------------------------- Iteration      1(   6)  ---------------------------------------


    POTLOK:  cpu time      0.0552: real time      0.0552
    SETDIJ:  cpu time      0.5971: real time      0.5974
     EDDAV:  cpu time      4.6110: real time      4.6173
       DOS:  cpu time      0.0005: real time      0.0005
    CHARGE:  cpu time      0.4293: real time      0.4299
    MIXING:  cpu time      0.0016: real time      0.0016
    --------------------------------------------
      LOOP:  cpu time      5.6947: real time      5.7019

 eigenvalue-minimisations  :  7716
 total energy-change (2. order) : 0.5349306E+01  (-0.5153178E+01)
 number of electron      56.0000001 magnetization      -0.2977724
 augmentation part       18.3628393 magnetization       0.0187623

 Broyden mixing:
  rms(total) = 0.15612E+01    rms(broyden)= 0.15610E+01
  rms(prec ) = 0.33652E+01
  weight for this iteration     100.00

 eigenvalues of (default mixing * dielectric matrix)
  average eigenvalue GAMMA=   0.7317
  0.7317

 Free energy of the ion-electron system (eV)
  ---------------------------------------------------
  alpha Z        PSCENC =       302.45619847
  Ewald energy   TEWEN  =     -5214.09126118
  -Hartree energ DENC   =     -1784.43363615
  -exchange      EXHF   =         0.00000000
  -V(xc)+E(xc)   XCENC  =       276.15594941
  PAW double counting   =      6060.59689122    -6024.41594256
  entropy T*S    EENTRO =        -0.00884344
  eigenvalues    EBANDS =      -624.45675689
  atomic energy  EATOM  =      6972.54864403
  Solvation  Ediel_sol  =         0.00000000
  ---------------------------------------------------
  free energy    TOTEN  =       -35.64875710 eV

  energy without entropy =      -35.63991366  energy(sigma->0) =      -35.64433538


--------------------------------------------------------------------------------------------------------




--------------------------------------- Iteration      1(   7)  ---------------------------------------


    POTLOK:  cpu time      0.0545: real time      0.0546
    SETDIJ:  cpu time      0.6502: real time      0.6505
     EDDAV:  cpu time      4.6447: real time      4.6484
       DOS:  cpu time      0.0005: real time      0.0005
    CHARGE:  cpu time      0.3798: real time      0.3800
    MIXING:  cpu time      0.0016: real time      0.0016
    --------------------------------------------
      LOOP:  cpu time      5.7314: real time      5.7356

 eigenvalue-minimisations  :  7524
 total energy-change (2. order) : 0.3444892E+01  (-0.1572533E+01)
 number of electron      56.0000001 magnetization      -0.3501084
 augmentation part       17.4083197 magnetization      -0.1848474

 Broyden mixing:
  rms(total) = 0.53968E+00    rms(broyden)= 0.53964E+00
  rms(prec ) = 0.84558E+00
  weight for this iteration     100.00

 eigenvalues of (default mixing * dielectric matrix)
  average eigenvalue GAMMA=   0.7249
  0.9179  0.5318

 Free energy of the ion-electron system (eV)
  ---------------------------------------------------
  alpha Z        PSCENC =       302.45619847
  Ewald energy   TEWEN  =     -5214.09126118
  -Hartree energ DENC   =     -1819.79663040
  -exchange      EXHF   =         0.00000000
  -V(xc)+E(xc)   XCENC  =       276.58075415
  PAW double counting   =      6242.72318639    -6204.17148742
  entropy T*S    EENTRO =        -0.00532661
  eigenvalues    EBANDS =      -588.44794303
  atomic energy  EATOM  =      6972.54864403
  Solvation  Ediel_sol  =         0.00000000
  ---------------------------------------------------
  free energy    TOTEN  =       -32.20386559 eV

  energy without entropy =      -32.19853898  energy(sigma->0) =      -32.20120229


--------------------------------------------------------------------------------------------------------




--------------------------------------- Iteration      1(   8)  ---------------------------------------


    POTLOK:  cpu time      0.0539: real time      0.0540
    SETDIJ:  cpu time      0.5923: real time      0.5925
     EDDAV:  cpu time      4.0685: real time      4.0714
       DOS:  cpu time      0.0005: real time      0.0005
    CHARGE:  cpu time      0.3828: real time      0.3835
    MIXING:  cpu time      0.0016: real time      0.0016
    --------------------------------------------
      LOOP:  cpu time      5.0997: real time      5.1035

 eigenvalue-minimisations  :  7656
 total energy-change (2. order) : 0.5256434E-01  (-0.1275846E+00)
 number of electron      56.0000001 magnetization      -0.3036431
 augmentation part       17.5333012 magnetization      -0.1280381

 Broyden mixing:
  rms(total) = 0.30160E+00    rms(broyden)= 0.30159E+00
  rms(prec ) = 0.41736E+00
  weight for this iteration     100.00

 eigenvalues of (default mixing * dielectric matrix)
  average eigenvalue GAMMA=   1.0447
  0.5595  0.8663  1.7084

 Free energy of the ion-electron system (eV)
  ---------------------------------------------------
  alpha Z        PSCENC =       302.45619847
  Ewald energy   TEWEN  =     -5214.09126118
  -Hartree energ DENC   =     -1808.52711595
  -exchange      EXHF   =         0.00000000
  -V(xc)+E(xc)   XCENC  =       276.19234231
  PAW double counting   =      6362.11707612    -6325.83504859
  entropy T*S    EENTRO =        -0.00510475
  eigenvalues    EBANDS =      -597.00703170
  atomic energy  EATOM  =      6972.54864403
  Solvation  Ediel_sol  =         0.00000000
  ---------------------------------------------------
  free energy    TOTEN  =       -32.15130126 eV

  energy without entropy =      -32.14619650  energy(sigma->0) =      -32.14874888


--------------------------------------------------------------------------------------------------------




--------------------------------------- Iteration      1(   9)  ---------------------------------------


    POTLOK:  cpu time      0.0548: real time      0.0548
    SETDIJ:  cpu time      0.5960: real time      0.5963
     EDDAV:  cpu time      4.1806: real time      4.1839
       DOS:  cpu time      0.0005: real time      0.0005
    CHARGE:  cpu time      0.3804: real time      0.3807
    MIXING:  cpu time      0.0016: real time      0.0016
    --------------------------------------------
      LOOP:  cpu time      5.2140: real time      5.2178

 eigenvalue-minimisations  :  7832
 total energy-change (2. order) : 0.2984312E-01  (-0.1307947E-01)
 number of electron      56.0000001 magnetization      -0.2910568
 augmentation part       17.6101560 magnetization      -0.1121450

 Broyden mixing:
  rms(total) = 0.84734E-01    rms(broyden)= 0.84732E-01
  rms(prec ) = 0.15303E+00
  weight for this iteration     100.00

 eigenvalues of (default mixing * dielectric matrix)
  average eigenvalue GAMMA=   1.1368
  2.3680  0.8633  0.5806  0.7353

 Free energy of the ion-electron system (eV)
  ---------------------------------------------------
  alpha Z        PSCENC =       302.45619847
  Ewald energy   TEWEN  =     -5214.09126118
  -Hartree energ DENC   =     -1802.14171586
  -exchange      EXHF   =         0.00000000
  -V(xc)+E(xc)   XCENC  =       276.09875874
  PAW double counting   =      6550.48478277    -6516.48742484
  entropy T*S    EENTRO =        -0.00556662
  eigenvalues    EBANDS =      -600.98387365
  atomic energy  EATOM  =      6972.54864403
  Solvation  Ediel_sol  =         0.00000000
  ---------------------------------------------------
  free energy    TOTEN  =       -32.12145814 eV

  energy without entropy =      -32.11589152  energy(sigma->0) =      -32.11867483


--------------------------------------------------------------------------------------------------------




--------------------------------------- Iteration      1(  10)  ---------------------------------------


    POTLOK:  cpu time      0.0552: real time      0.0553
    SETDIJ:  cpu time      0.5969: real time      0.5970
     EDDAV:  cpu time      4.0839: real time      4.0858
       DOS:  cpu time      0.0005: real time      0.0005
    CHARGE:  cpu time      0.3804: real time      0.3805
    MIXING:  cpu time      0.0018: real time      0.0018
    --------------------------------------------
      LOOP:  cpu time      5.1187: real time      5.1209

 eigenvalue-minimisations  :  7652
 total energy-change (2. order) : 0.3312483E-02  (-0.1806277E-02)
 number of electron      56.0000001 magnetization      -0.3000816
 augmentation part       17.5821790 magnetization      -0.1215006

 Broyden mixing:
  rms(total) = 0.27588E-01    rms(broyden)= 0.27587E-01
  rms(prec ) = 0.43248E-01
  weight for this iteration     100.00

 eigenvalues of (default mixing * dielectric matrix)
  average eigenvalue GAMMA=   1.1194
  2.5292  0.9353  0.9353  0.6209  0.5765

 Free energy of the ion-electron system (eV)
  ---------------------------------------------------
  alpha Z        PSCENC =       302.45619847
  Ewald energy   TEWEN  =     -5214.09126118
  -Hartree energ DENC   =     -1802.97422265
  -exchange      EXHF   =         0.00000000
  -V(xc)+E(xc)   XCENC  =       276.11822523
  PAW double counting   =      6597.76790019    -6563.91297937
  entropy T*S    EENTRO =        -0.00536730
  eigenvalues    EBANDS =      -600.02528308
  atomic energy  EATOM  =      6972.54864403
  Solvation  Ediel_sol  =         0.00000000
  ---------------------------------------------------
  free energy    TOTEN  =       -32.11814566 eV

  energy without entropy =      -32.11277836  energy(sigma->0) =      -32.11546201


--------------------------------------------------------------------------------------------------------




--------------------------------------- Iteration      1(  11)  ---------------------------------------


    POTLOK:  cpu time      0.0543: real time      0.0543
    SETDIJ:  cpu time      0.5986: real time      0.5986
     EDDAV:  cpu time      4.0864: real time      4.0872
       DOS:  cpu time      0.0005: real time      0.0005
    CHARGE:  cpu time      0.3852: real time      0.3853
    MIXING:  cpu time      0.0018: real time      0.0018
    --------------------------------------------
      LOOP:  cpu time      5.1268: real time      5.1277

 eigenvalue-minimisations  :  7640
 total energy-change (2. order) : 0.5479660E-06  (-0.2033738E-03)
 number of electron      56.0000001 magnetization      -0.3173371
 augmentation part       17.5763176 magnetization      -0.1344334

 Broyden mixing:
  rms(total) = 0.11990E-01    rms(broyden)= 0.11989E-01
  rms(prec ) = 0.18184E-01
  weight for this iteration     100.00

 eigenvalues of (default mixing * dielectric matrix)
  average eigenvalue GAMMA=   1.0858
  2.5040  1.0528  1.0528  0.5636  0.6706  0.6706

 Free energy of the ion-electron system (eV)
  ---------------------------------------------------
  alpha Z        PSCENC =       302.45619847
  Ewald energy   TEWEN  =     -5214.09126118
  -Hartree energ DENC   =     -1803.51542069
  -exchange      EXHF   =         0.00000000
  -V(xc)+E(xc)   XCENC  =       276.13192702
  PAW double counting   =      6601.51624952    -6567.55746760
  entropy T*S    EENTRO =        -0.00523720
  eigenvalues    EBANDS =      -599.60177748
  atomic energy  EATOM  =      6972.54864403
  Solvation  Ediel_sol  =         0.00000000
  ---------------------------------------------------
  free energy    TOTEN  =       -32.11814511 eV

  energy without entropy =      -32.11290791  energy(sigma->0) =      -32.11552651


--------------------------------------------------------------------------------------------------------




--------------------------------------- Iteration      1(  12)  ---------------------------------------


    POTLOK:  cpu time      0.0545: real time      0.0545
    SETDIJ:  cpu time      0.5961: real time      0.5962
     EDDAV:  cpu time      4.6501: real time      4.6513
       DOS:  cpu time      0.0005: real time      0.0005
    CHARGE:  cpu time      0.3830: real time      0.3831
    MIXING:  cpu time      0.0017: real time      0.0017
    --------------------------------------------
      LOOP:  cpu time      5.6859: real time      5.6873

 eigenvalue-minimisations  :  7748
 total energy-change (2. order) : 0.4346774E-04  (-0.2258989E-04)
 number of electron      56.0000001 magnetization      -0.3271901
 augmentation part       17.5751106 magnetization      -0.1373545

 Broyden mixing:
  rms(total) = 0.52716E-02    rms(broyden)= 0.52711E-02
  rms(prec ) = 0.73274E-02
  weight for this iteration     100.00

 eigenvalues of (default mixing * dielectric matrix)
  average eigenvalue GAMMA=   1.2129
  2.5057  2.0399  1.1027  0.8520  0.7716  0.5674  0.6507

 Free energy of the ion-electron system (eV)
  ---------------------------------------------------
  alpha Z        PSCENC =       302.45619847
  Ewald energy   TEWEN  =     -5214.09126118
  -Hartree energ DENC   =     -1804.10974260
  -exchange      EXHF   =         0.00000000
  -V(xc)+E(xc)   XCENC  =       276.15539415
  PAW double counting   =      6601.42913114    -6567.32176796
  entropy T*S    EENTRO =        -0.00509364
  eigenvalues    EBANDS =      -599.17960406
  atomic energy  EATOM  =      6972.54864403
  Solvation  Ediel_sol  =         0.00000000
  ---------------------------------------------------
  free energy    TOTEN  =       -32.11810164 eV

  energy without entropy =      -32.11300800  energy(sigma->0) =      -32.11555482


--------------------------------------------------------------------------------------------------------




--------------------------------------- Iteration      1(  13)  ---------------------------------------


    POTLOK:  cpu time      0.0538: real time      0.0539
    SETDIJ:  cpu time      0.5941: real time      0.5943
     EDDAV:  cpu time      4.0630: real time      4.0646
       DOS:  cpu time      0.0005: real time      0.0005
    CHARGE:  cpu time      0.3829: real time      0.3830
    MIXING:  cpu time      0.0018: real time      0.0018
    --------------------------------------------
      LOOP:  cpu time      5.0962: real time      5.0981

 eigenvalue-minimisations  :  7672
 total energy-change (2. order) :-0.1552383E-04  (-0.8102430E-05)
 number of electron      56.0000001 magnetization      -0.3276673
 augmentation part       17.5751128 magnetization      -0.1346875

 Broyden mixing:
  rms(total) = 0.12470E-02    rms(broyden)= 0.12459E-02
  rms(prec ) = 0.15391E-02
  weight for this iteration     100.00

 eigenvalues of (default mixing * dielectric matrix)
  average eigenvalue GAMMA=   1.2176
  2.6857  2.2799  1.0542  0.9678  0.7788  0.7725  0.5662  0.6357

 Free energy of the ion-electron system (eV)
  ---------------------------------------------------
  alpha Z        PSCENC =       302.45619847
  Ewald energy   TEWEN  =     -5214.09126118
  -Hartree energ DENC   =     -1804.36195732
  -exchange      EXHF   =         0.00000000
  -V(xc)+E(xc)   XCENC  =       276.16733065
  PAW double counting   =      6603.02724807    -6568.85998207
  entropy T*S    EENTRO =        -0.00503195
  eigenvalues    EBANDS =      -598.99930587
  atomic energy  EATOM  =      6972.54864403
  Solvation  Ediel_sol  =         0.00000000
  ---------------------------------------------------
  free energy    TOTEN  =       -32.11811716 eV

  energy without entropy =      -32.11308522  energy(sigma->0) =      -32.11560119


--------------------------------------------------------------------------------------------------------




--------------------------------------- Iteration      1(  14)  ---------------------------------------


    POTLOK:  cpu time      0.0539: real time      0.0540
    SETDIJ:  cpu time      0.5937: real time      0.5938
     EDDAV:  cpu time      3.4211: real time      3.4223
       DOS:  cpu time      0.0005: real time      0.0005
    CHARGE:  cpu time      0.3789: real time      0.3791
    MIXING:  cpu time      0.0019: real time      0.0019
    --------------------------------------------
      LOOP:  cpu time      4.4501: real time      4.4516

 eigenvalue-minimisations  :  5888
 total energy-change (2. order) :-0.1200207E-05  (-0.2670693E-06)
 number of electron      56.0000001 magnetization      -0.3281327
 augmentation part       17.5750887 magnetization      -0.1347442

 Broyden mixing:
  rms(total) = 0.48502E-03    rms(broyden)= 0.48475E-03
  rms(prec ) = 0.70188E-03
  weight for this iteration     100.00

 eigenvalues of (default mixing * dielectric matrix)
  average eigenvalue GAMMA=   1.2074
  2.7224  2.3199  1.0937  1.0937  0.9292  0.5669  0.7555  0.7555  0.6294

 Free energy of the ion-electron system (eV)
  ---------------------------------------------------
  alpha Z        PSCENC =       302.45619847
  Ewald energy   TEWEN  =     -5214.09126118
  -Hartree energ DENC   =     -1804.37212488
  -exchange      EXHF   =         0.00000000
  -V(xc)+E(xc)   XCENC  =       276.16755251
  PAW double counting   =      6603.07629895    -6568.90309043
  entropy T*S    EENTRO =        -0.00502617
  eigenvalues    EBANDS =      -598.99530967
  atomic energy  EATOM  =      6972.54864403
  Solvation  Ediel_sol  =         0.00000000
  ---------------------------------------------------
  free energy    TOTEN  =       -32.11811836 eV

  energy without entropy =      -32.11309219  energy(sigma->0) =      -32.11560528


--------------------------------------------------------------------------------------------------------




--------------------------------------- Iteration      1(  15)  ---------------------------------------


    POTLOK:  cpu time      0.0549: real time      0.0550
    SETDIJ:  cpu time      0.5957: real time      0.5958
     EDDAV:  cpu time      2.9545: real time      2.9557
       DOS:  cpu time      0.0005: real time      0.0005
    --------------------------------------------
      LOOP:  cpu time      3.6057: real time      3.6070

 eigenvalue-minimisations  :  4576
 total energy-change (2. order) : 0.4066110E-06  (-0.7804014E-07)
 number of electron      56.0000001 magnetization      -0.3281327
 augmentation part       17.5750887 magnetization      -0.1347442

 Free energy of the ion-electron system (eV)
  ---------------------------------------------------
  alpha Z        PSCENC =       302.45619847
  Ewald energy   TEWEN  =     -5214.09126118
  -Hartree energ DENC   =     -1804.36994215
  -exchange      EXHF   =         0.00000000
  -V(xc)+E(xc)   XCENC  =       276.16730663
  PAW double counting   =      6602.82820343    -6568.65158932
  entropy T*S    EENTRO =        -0.00502219
  eigenvalues    EBANDS =      -599.00065568
  atomic energy  EATOM  =      6972.54864403
  Solvation  Ediel_sol  =         0.00000000
  ---------------------------------------------------
  free energy    TOTEN  =       -32.11811796 eV

  energy without entropy =      -32.11309577  energy(sigma->0) =      -32.11560686


--------------------------------------------------------------------------------------------------------




 average (electrostatic) potential at core
  the test charge radii are     1.0504  0.7215
  (the norm of the test charge is              1.0000)
       1 -80.5428       2 -80.5428       3 -70.0482       4 -70.0482       5 -70.0482
       6 -70.0482
 
 
 
 E-fermi :   5.4864     XC(G=0): -11.8267     alpha+bet :-12.2345

 val. band max:        5.4861317502   @ k =   0.1667   0.1667   0.0000
 cond. band min:       5.4931665178   @ k =   0.0000   0.0000   0.5000
 fundamental gap:      0.0070347676
 Fermi energy:         5.4864426118

 spin component 1

 k-point     1 :       0.0000    0.0000    0.0000
  band No.  band energies     occupation 
      1     -46.4086      1.00000
      2     -46.4010      1.00000
      3     -46.3009      1.00000
      4     -46.3009      1.00000
      5     -46.1659      1.00000
      6     -46.1659      1.00000
      7     -13.9417      1.00000
      8     -12.7978      1.00000
      9     -12.0099      1.00000
     10     -12.0099      1.00000
     11      -2.7592      1.00000
     12      -2.5432      1.00000
     13      -1.4140      1.00000
     14      -1.4140      1.00000
     15      -0.9750      1.00000
     16       1.7163      1.00000
     17       2.0020      1.00000
     18       2.0020      1.00000
     19       2.1625      1.00000
     20       2.2600      1.00000
     21       2.2600      1.00000
     22       2.4197      1.00000
     23       2.9476      1.00000
     24       3.3195      1.00000
     25       4.1501      1.00000
     26       4.1501      1.00000
     27       4.7100      1.00000
     28       4.8162      1.00000
     29       5.7705      0.00000
     30       8.1768      0.00000
     31       8.1768      0.00000
     32       9.1685      0.00000
     33      11.6962      0.00000
     34      15.5234      0.00000
     35      15.5234      0.00000
     36      18.3757      0.00000

 k-point     2 :       0.1667    0.0000    0.0000
  band No.  band energies     occupation 
      1     -46.4081      1.00000
      2     -46.4015      1.00000
      3     -46.3008      1.00000
      4     -46.3008      1.00000
      5     -46.1662      1.00000
      6     -46.1662      1.00000
      7     -13.8488      1.00000
      8     -12.8054      1.00000
      9     -12.1100      1.00000
     10     -12.0511      1.00000
     11      -2.5801      1.00000
     12      -2.3295      1.00000
     13      -1.3957      1.00000
     14      -1.3871      1.00000
     15      -0.8106      1.00000
     16       1.2719      1.00000
     17       1.3749      1.00000
     18       1.3954      1.00000
     19       1.9470      1.00000
     20       2.1082      1.00000
     21       2.7140      1.00000
     22       2.8471      1.00000
     23       3.2450      1.00000
     24       3.5865      1.00000
     25       3.8441      1.00000
     26       4.0970      1.00000
     27       4.7240      1.00000
     28       5.4197      0.97053
     29       5.6625      0.00000
     30       8.0700      0.00000
     31       8.1028      0.00000
     32       9.0082      0.00000
     33      12.1014      0.00000
     34      15.4840      0.00000
     35      15.6821      0.00000
     36      18.2431      0.00000

 k-point     3 :       0.3333    0.0000    0.0000
  band No.  band energies     occupation 
      1     -46.4067      1.00000
      2     -46.4029      1.00000
      3     -46.3004      1.00000
      4     -46.3004      1.00000
      5     -46.1667      1.00000
      6     -46.1667      1.00000
      7     -13.5890      1.00000
      8     -12.9124      1.00000
      9     -12.2688      1.00000
     10     -12.1540      1.00000
     11      -2.0982      1.00000
     12      -1.8293      1.00000
     13      -1.3521      1.00000
     14      -1.3356      1.00000
     15      -0.3181      1.00000
     16       0.4091      1.00000
     17       0.4630      1.00000
     18       1.1254      1.00000
     19       1.4027      1.00000
     20       1.4669      1.00000
     21       3.2850      1.00000
     22       3.3541      1.00000
     23       3.5484      1.00000
     24       3.6741      1.00000
     25       3.8837      1.00000
     26       4.0890      1.00000
     27       4.6127      1.00000
     28       5.2992      1.00000
     29       6.5845      0.00000
     30       7.8663      0.00000
     31       7.9291      0.00000
     32       8.5012      0.00000
     33      13.0924      0.00000
     34      15.1207      0.00000
     35      16.1874      0.00000
     36      17.7704      0.00000

 k-point     4 :       0.5000    0.0000    0.0000
  band No.  band energies     occupation 
      1     -46.4048      1.00000
      2     -46.4048      1.00000
      3     -46.3002      1.00000
      4     -46.3002      1.00000
      5     -46.1670      1.00000
      6     -46.1670      1.00000
      7     -13.2275      1.00000
      8     -13.2275      1.00000
      9     -12.2610      1.00000
     10     -12.2610      1.00000
     11      -1.6087      1.00000
     12      -1.6087      1.00000
     13      -1.3188      1.00000
     14      -1.3188      1.00000
     15      -0.0499      1.00000
     16      -0.0499      1.00000
     17       0.4785      1.00000
     18       0.4785      1.00000
     19       1.1505      1.00000
     20       1.1505      1.00000
     21       3.4960      1.00000
     22       3.4960      1.00000
     23       3.8149      1.00000
     24       3.8149      1.00000
     25       3.8897      1.00000
     26       3.8897      1.00000
     27       4.8845      1.00000
     28       4.8845      1.00000
     29       7.6608      0.00000
     30       7.6608      0.00000
     31       7.7992      0.00000
     32       7.7992      0.00000
     33      14.2352      0.00000
     34      14.2352      0.00000
     35      16.9788      0.00000
     36      16.9788      0.00000

 k-point     5 :       0.1667    0.1667    0.0000
  band No.  band energies     occupation 
      1     -46.4077      1.00000
      2     -46.4019      1.00000
      3     -46.3011      1.00000
      4     -46.3004      1.00000
      5     -46.1667      1.00000
      6     -46.1659      1.00000
      7     -13.7690      1.00000
      8     -12.8259      1.00000
      9     -12.2079      1.00000
     10     -12.0462      1.00000
     11      -2.6720      1.00000
     12      -1.9242      1.00000
     13      -1.4301      1.00000
     14      -1.3343      1.00000
     15      -0.6559      1.00000
     16       0.4564      1.00000
     17       1.1896      1.00000
     18       1.5974      1.00000
     19       2.2644      1.00000
     20       2.3604      1.00000
     21       2.4488      1.00000
     22       2.5880      1.00000
     23       3.1803      1.00000
     24       3.6195      1.00000
     25       3.7972      1.00000
     26       4.4102      1.00000
     27       4.6609      1.00000
     28       5.6169      0.00011
     29       5.6555      0.00000
     30       7.8975      0.00000
     31       8.1707      0.00000
     32       8.8292      0.00000
     33      12.4894      0.00000
     34      15.5690      0.00000
     35      15.7275      0.00000
     36      18.1202      0.00000

 k-point     6 :       0.3333    0.1667    0.0000
  band No.  band energies     occupation 
      1     -46.4065      1.00000
      2     -46.4032      1.00000
      3     -46.3010      1.00000
      4     -46.3002      1.00000
      5     -46.1670      1.00000
      6     -46.1662      1.00000
      7     -13.5477      1.00000
      8     -12.9586      1.00000
      9     -12.2885      1.00000
     10     -12.1210      1.00000
     11      -2.4722      1.00000
     12      -1.5656      1.00000
     13      -1.4169      1.00000
     14      -1.3182      1.00000
     15      -0.1996      1.00000
     16      -0.0342      1.00000
     17       1.0624      1.00000
     18       1.1046      1.00000
     19       1.7221      1.00000
     20       1.7818      1.00000
     21       2.9643      1.00000
     22       3.0206      1.00000
     23       3.2296      1.00000
     24       3.5747      1.00000
     25       3.9000      1.00000
     26       4.0483      1.00000
     27       4.8683      1.00000
     28       5.4619      0.75664
     29       6.4770      0.00000
     30       7.7945      0.00000
     31       8.0801      0.00000
     32       8.2923      0.00000
     33      13.4234      0.00000
     34      15.3112      0.00000
     35      16.1565      0.00000
     36      17.6763      0.00000

 k-point     7 :       0.5000    0.1667    0.0000
  band No.  band energies     occupation 
      1     -46.4048      1.00000
      2     -46.4048      1.00000
      3     -46.3005      1.00000
      4     -46.3005      1.00000
      5     -46.1667      1.00000
      6     -46.1667      1.00000
      7     -13.2417      1.00000
      8     -13.2417      1.00000
      9     -12.2328      1.00000
     10     -12.2328      1.00000
     11      -1.9775      1.00000
     12      -1.9775      1.00000
     13      -1.3624      1.00000
     14      -1.3624      1.00000
     15       0.2990      1.00000
     16       0.2990      1.00000
     17       0.7685      1.00000
     18       0.7685      1.00000
     19       1.3244      1.00000
     20       1.3244      1.00000
     21       3.2997      1.00000
     22       3.2997      1.00000
     23       3.6028      1.00000
     24       3.6028      1.00000
     25       3.6178      1.00000
     26       3.6178      1.00000
     27       5.1817      1.00000
     28       5.1817      1.00000
     29       7.4572      0.00000
     30       7.4572      0.00000
     31       7.8943      0.00000
     32       7.8943      0.00000
     33      14.4900      0.00000
     34      14.4900      0.00000
     35      16.9229      0.00000
     36      16.9229      0.00000

 k-point     8 :       0.3333    0.3333    0.0000
  band No.  band energies     occupation 
      1     -46.4057      1.00000
      2     -46.4038      1.00000
      3     -46.3014      1.00000
      4     -46.3006      1.00000
      5     -46.1667      1.00000
      6     -46.1659      1.00000
      7     -13.4328      1.00000
      8     -13.0921      1.00000
      9     -12.2584      1.00000
     10     -12.1168      1.00000
     11      -2.6527      1.00000
     12      -1.9667      1.00000
     13      -1.4619      1.00000
     14      -1.3714      1.00000
     15       0.1916      1.00000
     16       0.5204      1.00000
     17       1.1778      1.00000
     18       1.3175      1.00000
     19       2.2739      1.00000
     20       2.2912      1.00000
     21       2.4224      1.00000
     22       2.5232      1.00000
[...]
      2     -46.5106      1.00000
      3     -46.3719      1.00000
      4     -46.3719      1.00000
      5     -46.2122      1.00000
      6     -46.2122      1.00000
      7     -12.7770      1.00000
      8     -12.7770      1.00000
      9     -12.5147      1.00000
     10     -12.5147      1.00000
     11      -1.6029      1.00000
     12      -1.6029      1.00000
     13      -1.1617      1.00000
     14      -1.1617      1.00000
     15       0.3299      1.00000
     16       0.3299      1.00000
     17       0.9187      1.00000
     18       0.9187      1.00000
     19       1.6130      1.00000
     20       1.6130      1.00000
     21       2.5914      1.00000
     22       2.5914      1.00000
     23       2.6149      1.00000
     24       2.6149      1.00000
     25       3.7434      1.00000
     26       3.7434      1.00000
     27       5.1675      1.00000
     28       5.1675      1.00000
     29       5.4408      0.90181
     30       5.4408      0.90181
     31       8.3897      0.00000
     32       8.3897      0.00000
     33      16.6053      0.00000
     34      16.6053      0.00000
     35      17.6604      0.00000
     36      17.6604      0.00000

 k-point    48 :       0.3333    0.3333    0.5000
  band No.  band energies     occupation 
      1     -46.5105      1.00000
      2     -46.5102      1.00000
      3     -46.3723      1.00000
      4     -46.3719      1.00000
      5     -46.2123      1.00000
      6     -46.2123      1.00000
      7     -12.7712      1.00000
      8     -12.7369      1.00000
      9     -12.5496      1.00000
     10     -12.5176      1.00000
     11      -1.5906      1.00000
     12      -1.2647      1.00000
     13      -1.1893      1.00000
     14      -1.0145      1.00000
     15      -0.6196      1.00000
     16       0.4625      1.00000
     17       0.5552      1.00000
     18       0.8949      1.00000
     19       1.4393      1.00000
     20       1.7198      1.00000
     21       2.5857      1.00000
     22       2.6122      1.00000
     23       2.6156      1.00000
     24       3.1330      1.00000
     25       3.7490      1.00000
     26       4.5279      1.00000
     27       4.8269      1.00000
     28       5.1511      1.00000
     29       5.4208      0.96836
     30       6.4665      0.00000
     31       7.2807      0.00000
     32       8.3540      0.00000
     33      16.3573      0.00000
     34      16.8727      0.00000
     35      17.1594      0.00000
     36      18.0836      0.00000

 k-point    49 :       0.5000    0.3333    0.5000
  band No.  band energies     occupation 
      1     -46.5103      1.00000
      2     -46.5103      1.00000
      3     -46.3722      1.00000
      4     -46.3722      1.00000
      5     -46.2123      1.00000
      6     -46.2123      1.00000
      7     -12.7348      1.00000
      8     -12.7348      1.00000
      9     -12.5497      1.00000
     10     -12.5497      1.00000
     11      -1.3587      1.00000
     12      -1.3587      1.00000
     13      -1.1907      1.00000
     14      -1.1907      1.00000
     15      -0.2303      1.00000
     16      -0.2303      1.00000
     17       0.6686      1.00000
     18       0.6686      1.00000
     19       1.6050      1.00000
     20       1.6050      1.00000
     21       2.6191      1.00000
     22       2.6191      1.00000
     23       3.0715      1.00000
     24       3.0715      1.00000
     25       4.1101      1.00000
     26       4.1101      1.00000
     27       5.0991      1.00000
     28       5.0991      1.00000
     29       5.8769      0.00000
     30       5.8769      0.00000
     31       7.8274      0.00000
     32       7.8274      0.00000
     33      16.5321      0.00000
     34      16.5321      0.00000
     35      17.4324      0.00000
     36      17.4324      0.00000

 k-point    50 :       0.5000    0.5000    0.5000
  band No.  band energies     occupation 
      1     -46.5101      1.00000
      2     -46.5101      1.00000
      3     -46.3723      1.00000
      4     -46.3723      1.00000
      5     -46.2124      1.00000
      6     -46.2124      1.00000
      7     -12.7059      1.00000
      8     -12.7059      1.00000
      9     -12.5750      1.00000
     10     -12.5750      1.00000
     11      -1.2284      1.00000
     12      -1.2284      1.00000
     13      -1.0949      1.00000
     14      -1.0949      1.00000
     15      -0.5965      1.00000
     16      -0.5965      1.00000
     17       0.5627      1.00000
     18       0.5627      1.00000
     19       1.6088      1.00000
     20       1.6088      1.00000
     21       2.6243      1.00000
     22       2.6243      1.00000
     23       3.2468      1.00000
     24       3.2468      1.00000
     25       4.5622      1.00000
     26       4.5622      1.00000
     27       4.6757      1.00000
     28       4.6757      1.00000
     29       6.4628      0.00000
     30       6.4628      0.00000
     31       7.3024      0.00000
     32       7.3024      0.00000
     33      16.4021      0.00000
     34      16.4021      0.00000
     35      17.4601      0.00000
     36      17.4601      0.00000


--------------------------------------------------------------------------------------------------------


 soft charge-density along one line, spin component            1
         0         1         2         3         4         5         6         7         8         9
 total charge-density along one line
 
 soft charge-density along one line, spin component            2
         0         1         2         3         4         5         6         7         8         9
 total charge-density along one line
 
 pseudopotential strength for first ion, spin component:            1
-40.497  -0.000   0.032  10.120   0.000  -0.019   0.000   0.000
 -0.000 -40.596  -0.000   0.000  10.175   0.000   0.000   0.000
  0.032  -0.000 -40.497  -0.019   0.000  10.120   0.000   0.000
 10.120   0.000  -0.019   7.363  -0.000   0.005  -0.000  -0.000
  0.000  10.175   0.000  -0.000   7.351  -0.000  -0.000  -0.000
 -0.019   0.000  10.120   0.005  -0.000   7.363  -0.000  -0.000
  0.000   0.000   0.000  -0.000  -0.000  -0.000  -5.080  -0.000
  0.000   0.000   0.000  -0.000  -0.000  -0.000  -0.000  -5.093
 -0.000   0.000  -0.000   0.000  -0.000   0.000  -0.082   0.000
  0.000   0.000   0.000  -0.000  -0.000  -0.000  -0.000  -0.049
 -0.000  -0.000   0.000   0.000   0.000  -0.000   0.000   0.000
  0.000   0.000   0.000  -0.000  -0.000  -0.000  -5.044  -0.000
  0.000   0.000   0.000  -0.000  -0.000  -0.000  -0.000  -5.059
 -0.000   0.000  -0.000   0.000  -0.000   0.000  -0.092   0.000
  0.000   0.000   0.000  -0.000  -0.000  -0.000  -0.000  -0.055
 -0.000  -0.000   0.000   0.000   0.000  -0.000   0.000   0.000
 -0.000  -0.000  -0.000  -0.000  -0.000   0.000  -0.012   0.000
 -0.000  -0.000  -0.000  -0.000  -0.000  -0.000  -0.025   0.000
 pseudopotential strength for first ion, spin component:            2
-40.533  -0.000   0.038  10.139   0.000  -0.022   0.000   0.000
 -0.000 -40.621  -0.000   0.000  10.188   0.000   0.000   0.000
  0.038  -0.000 -40.533  -0.022   0.000  10.139   0.000   0.000
 10.139   0.000  -0.022   7.358  -0.000   0.005  -0.000  -0.000
  0.000  10.188   0.000  -0.000   7.348  -0.000  -0.000  -0.000
 -0.022   0.000  10.139   0.005  -0.000   7.358  -0.000  -0.000
  0.000   0.000   0.000  -0.000  -0.000  -0.000  -5.098  -0.000
  0.000   0.000   0.000  -0.000  -0.000  -0.000  -0.000  -5.125
 -0.000   0.000  -0.000   0.000  -0.000   0.000  -0.082   0.000
  0.000   0.000   0.000  -0.000  -0.000  -0.000  -0.000  -0.040
 -0.000  -0.000   0.000   0.000   0.000  -0.000  -0.000   0.000
  0.000   0.000   0.000  -0.000  -0.000  -0.000  -5.064  -0.000
  0.000   0.000   0.000  -0.000  -0.000  -0.000  -0.000  -5.094
 -0.000   0.000  -0.000   0.000  -0.000   0.000  -0.091   0.000
  0.000   0.000   0.000  -0.000  -0.000  -0.000  -0.000  -0.045
 -0.000  -0.000   0.000   0.000   0.000  -0.000  -0.000   0.000
 -0.000  -0.000  -0.000  -0.000  -0.000  -0.000  -0.014   0.000
 -0.000  -0.000  -0.000  -0.000  -0.000  -0.000  -0.029   0.000
 total augmentation occupancy for first ion, spin component:            1
  1.995   0.000   0.000  -0.035  -0.000   0.001   0.000   0.000   0.000   0.000   0.000   0.000   0.000   0.000   0.000   0.000
  0.000   1.995   0.000  -0.000  -0.036  -0.000   0.000   0.000   0.000   0.000   0.000   0.000   0.000   0.000   0.000   0.000
  0.000   0.000   1.995   0.001  -0.000  -0.035   0.000   0.000   0.000   0.000   0.000   0.000   0.000   0.000   0.000   0.000
 -0.035  -0.000   0.001   0.173   0.000  -0.019   0.000   0.000   0.000   0.000   0.000   0.000   0.000   0.000   0.000   0.000
 -0.000  -0.036  -0.000   0.000   0.203   0.000   0.000   0.000   0.000   0.000   0.000   0.000   0.000   0.000   0.000   0.000
  0.001  -0.000  -0.035  -0.019   0.000   0.173   0.000   0.000   0.000   0.000   0.000   0.000   0.000   0.000   0.000   0.000
  0.000   0.000   0.000   0.000   0.000   0.000   3.973   0.000   1.497   0.000   0.000  -1.956  -0.000  -1.208  -0.000  -0.000
  0.000   0.000   0.000   0.000   0.000   0.000   0.000   3.512   0.000   1.269  -0.000  -0.000  -1.656  -0.000  -0.996   0.000
  0.000   0.000   0.000   0.000   0.000   0.000   1.497   0.000   3.294   0.000   0.000  -1.181  -0.000  -1.446  -0.000  -0.000
  0.000   0.000   0.000   0.000   0.000   0.000   0.000   1.269   0.000   3.512   0.000  -0.000  -0.996  -0.000  -1.656  -0.000
  0.000   0.000   0.000   0.000   0.000   0.000   0.000  -0.000   0.000   0.000   2.107  -0.000   0.000  -0.000  -0.000  -0.593
  0.000   0.000   0.000   0.000   0.000   0.000  -1.956  -0.000  -1.181  -0.000  -0.000   1.471   0.000   0.594   0.000   0.000
  0.000   0.000   0.000   0.000   0.000   0.000  -0.000  -1.656  -0.000  -0.996   0.000   0.000   1.433   0.000   0.423  -0.000
  0.000   0.000   0.000   0.000   0.000   0.000  -1.208  -0.000  -1.446  -0.000  -0.000   0.594   0.000   1.360   0.000   0.000
  0.000   0.000   0.000   0.000   0.000   0.000  -0.000  -0.996  -0.000  -1.656  -0.000   0.000   0.423   0.000   1.433   0.000
  0.000   0.000   0.000   0.000   0.000   0.000  -0.000   0.000  -0.000  -0.000  -0.593   0.000  -0.000   0.000   0.000   1.035
  0.000   0.000   0.000   0.000   0.000   0.000  -0.207  -0.000   0.218  -0.000  -0.000   0.256   0.000  -0.298   0.000   0.000
  0.000   0.000   0.000   0.000   0.000   0.000   0.022   0.000  -0.013   0.000   0.000  -0.033  -0.000   0.037  -0.000  -0.000
 total augmentation occupancy for first ion, spin component:            2
 -0.000   0.000   0.000   0.000   0.000   0.000   0.000   0.000   0.000   0.000   0.000   0.000   0.000   0.000   0.000   0.000
  0.000   0.000   0.000   0.000   0.000   0.000   0.000   0.000   0.000   0.000   0.000   0.000   0.000   0.000   0.000   0.000
  0.000   0.000  -0.000   0.000   0.000   0.000   0.000   0.000   0.000   0.000   0.000   0.000   0.000   0.000   0.000   0.000
  0.000   0.000   0.000   0.000   0.000  -0.000   0.000   0.000   0.000   0.000   0.000   0.000   0.000   0.000   0.000   0.000
  0.000   0.000   0.000   0.000   0.000   0.000   0.000   0.000   0.000   0.000   0.000   0.000   0.000   0.000   0.000   0.000
  0.000   0.000   0.000  -0.000   0.000   0.000   0.000   0.000   0.000   0.000   0.000   0.000   0.000   0.000   0.000   0.000
  0.000   0.000   0.000   0.000   0.000   0.000   0.008   0.000   0.002   0.000   0.000  -0.005  -0.000  -0.002  -0.000  -0.000
  0.000   0.000   0.000   0.000   0.000   0.000   0.000   0.007   0.000   0.003  -0.000  -0.000   0.005  -0.000  -0.011  -0.000
  0.000   0.000   0.000   0.000   0.000   0.000   0.002   0.000   0.007   0.000   0.000  -0.002  -0.000  -0.004  -0.000  -0.000
  0.000   0.000   0.000   0.000   0.000   0.000   0.000   0.003   0.000   0.007   0.000  -0.000  -0.011  -0.000   0.005   0.000
  0.000   0.000   0.000   0.000   0.000   0.000   0.000  -0.000   0.000   0.000   0.005  -0.000  -0.000  -0.000   0.000   0.020
  0.000   0.000   0.000   0.000   0.000   0.000  -0.005  -0.000  -0.002  -0.000  -0.000   0.002   0.000   0.002   0.000   0.000
  0.000   0.000   0.000   0.000   0.000   0.000  -0.000   0.005  -0.000  -0.011  -0.000   0.000  -0.030   0.000   0.031   0.000
  0.000   0.000   0.000   0.000   0.000   0.000  -0.002  -0.000  -0.004  -0.000  -0.000   0.002   0.000   0.001   0.000   0.000
  0.000   0.000   0.000   0.000   0.000   0.000  -0.000  -0.011  -0.000   0.005   0.000   0.000   0.031   0.000  -0.030  -0.000
  0.000   0.000   0.000   0.000   0.000   0.000  -0.000  -0.000  -0.000   0.000   0.020   0.000   0.000   0.000  -0.000  -0.082
  0.000   0.000   0.000   0.000   0.000   0.000  -0.003  -0.000  -0.003  -0.000  -0.000   0.002   0.000   0.000   0.000   0.000
  0.000   0.000   0.000   0.000   0.000   0.000   0.002   0.000   0.002   0.000   0.000  -0.001  -0.000  -0.000  -0.000  -0.000


------------------------ aborting loop because EDIFF is reached ----------------------------------------





 total charge

# of ion       s       p       d       tot
------------------------------------------
    1        0.334   6.324   7.657  14.314
    2        0.334   6.324   7.657  14.314
    3        1.571   3.375   0.000   4.947
    4        1.571   3.375   0.000   4.947
    5        1.571   3.375   0.000   4.947
    6        1.571   3.375   0.000   4.947
--------------------------------------------------
tot          6.952  26.149  15.314  48.415



 magnetization (x)

# of ion       s       p       d       tot
------------------------------------------
    1        0.000   0.001  -0.067  -0.066
    2        0.000   0.001  -0.067  -0.066
    3       -0.001  -0.041   0.000  -0.042
    4       -0.001  -0.041   0.000  -0.042
    5       -0.001  -0.041   0.000  -0.042
    6       -0.001  -0.041   0.000  -0.042
--------------------------------------------------
tot         -0.002  -0.163  -0.134  -0.299
 
    CHARGE:  cpu time      0.3794: real time      0.3795
    FORLOC:  cpu time      0.0017: real time      0.0017
    FORNL :  cpu time      0.7845: real time      0.7846
    FORCOR:  cpu time      0.6514: real time      0.6514
    FORHAR:  cpu time      0.0069: real time      0.0069
    MIXING:  cpu time      0.0019: real time      0.0019
    OFIELD:  cpu time      0.0000: real time      0.0000

 ---------------------------------------------------------------------------------------------

         DFTD3 V3.0 Rev 1        
 DF pbe       
 parameters
 k1-k3        =   16.0000    1.3333   -4.0000
 Edisp (eV)   -1.41402

 E6    (eV) :    -0.8848
 E8    (eV) :    -0.5293
 % E8        : 37.43
    FORVDW:  cpu time      0.0115: real time      0.0115

 VOLUME and BASIS-vectors are now :
 -----------------------------------------------------------------------------
  energy-cutoff  :      600.00
  volume of cell :       64.34
      direct lattice vectors                 reciprocal lattice vectors
     4.522230460  0.000000000  0.000000000     0.221129818 -0.000000000  0.000000000
     0.000000000  4.522230460  0.000000000     0.000000000  0.221129818  0.000000000
     0.000000000  0.000000000  3.146273630    -0.000000000 -0.000000000  0.317836310

  length of vectors
     4.522230460  4.522230460  3.146273630     0.221129818  0.221129818  0.317836310


 FORCES acting on ions
    electron-ion (+dipol)            ewald-force                    non-local-force                 convergence-correction
 -----------------------------------------------------------------------------------------------
   0.210E-11 0.725E-11 0.681E-11   0.284E-13 0.000E+00 0.158E-13   -.151E-23 0.000E+00 0.000E+00   -.328E-13 -.195E-13 -.174E-13
   0.464E-13 0.864E-14 -.128E-11   0.284E-13 0.114E-12 -.100E-13   0.144E-23 0.000E+00 0.000E+00   0.253E-13 0.136E-12 -.601E-13
   0.374E+02 -.374E+02 0.564E-11   -.386E+02 0.386E+02 0.163E-13   0.119E+01 -.119E+01 -.694E-17   0.347E-04 -.347E-04 -.103E-13
   -.374E+02 0.374E+02 0.103E-11   0.386E+02 -.386E+02 -.574E-14   -.119E+01 0.119E+01 0.694E-17   -.347E-04 0.347E-04 0.184E-13
   0.374E+02 0.374E+02 0.927E-08   -.386E+02 -.386E+02 0.191E-12   0.119E+01 0.119E+01 0.125E-15   0.347E-04 0.347E-04 -.242E-11
   -.374E+02 -.374E+02 -.928E-08   0.386E+02 0.386E+02 -.209E-12   -.119E+01 -.119E+01 -.125E-15   -.347E-04 -.347E-04 0.241E-11
 -----------------------------------------------------------------------------------------------
   -.442E-12 0.108E-10 0.216E-11   -.711E-14 0.355E-13 -.172E-14   0.444E-15 0.000E+00 0.000E+00   0.217E-13 0.675E-13 -.807E-13
 
 
 POSITION                                       TOTAL-FORCE (eV/Angst)
 -----------------------------------------------------------------------------------
      2.26112      2.26112      1.57314        -0.000000      0.000000     -0.000000
      0.00000      0.00000      0.00000        -0.000000      0.000000     -0.000000
      3.65465      0.86758      1.57314        -0.069879      0.069879      0.000000
      0.86758      3.65465      1.57314         0.069879     -0.069879     -0.000000
      1.39353      1.39353      0.00000        -0.069879     -0.069879     -0.000000
      3.12870      3.12870      0.00000         0.069879      0.069879      0.000000
 -----------------------------------------------------------------------------------
    total drift:                               -0.000000      0.000000      0.000000


--------------------------------------------------------------------------------------------------------



  FREE ENERGIE OF THE ION-ELECTRON SYSTEM (eV)
  ---------------------------------------------------
  free  energy   TOTEN  =       -33.53213739 eV

  energy  without entropy=      -33.52711521  energy(sigma->0) =      -33.52962630
 


--------------------------------------------------------------------------------------------------------


    POTLOK:  cpu time      0.6470: real time      0.6471


--------------------------------------------------------------------------------------------------------


     LOOP+:  cpu time     75.2509: real time     75.9820
    4ORBIT:  cpu time      0.0000: real time      0.0000



 total charge

# of ion       s       p       d       tot
------------------------------------------
    1        0.334   6.324   7.657  14.314
    2        0.334   6.324   7.657  14.314
    3        1.571   3.375   0.000   4.947
    4        1.571   3.375   0.000   4.947
    5        1.571   3.375   0.000   4.947
    6        1.571   3.375   0.000   4.947
--------------------------------------------------
tot          6.952  26.149  15.314  48.415



 magnetization (x)

# of ion       s       p       d       tot
------------------------------------------
    1        0.000   0.001  -0.067  -0.066
    2        0.000   0.001  -0.067  -0.066
    3       -0.001  -0.041   0.000  -0.042
    4       -0.001  -0.041   0.000  -0.042
    5       -0.001  -0.041   0.000  -0.042
    6       -0.001  -0.041   0.000  -0.042
--------------------------------------------------
tot         -0.002  -0.163  -0.134  -0.299
 

 total amount of memory used by VASP MPI-rank0   114117. kBytes
=======================================================================

   base      :      30000. kBytes
   nonl-proj :      31659. kBytes
   fftplans  :      10928. kBytes
   grid      :       8916. kBytes
   one-center:        186. kBytes
   wavefun   :      32428. kBytes
 
  
  
 General timing and accounting informations for this job:
 ========================================================
  
                  Total CPU time used (sec):       77.873
                            User time (sec):       75.727
                          System time (sec):        2.146
                         Elapsed time (sec):       79.329
  
                   Maximum memory used (kb):      394024.
                   Average memory used (kb):          N/A
  
                          Minor page faults:       471810
                          Major page faults:            1
                 Voluntary context switches:          153
