87
Lattice="11.004690437655821 0.0 0.0 0.0 11.004690437655821 0.0 0.0 0.0 27.781491233325184" Properties=species:S:1:pos:R:3:move_mask:L:1:momenta:R:3:forces:R:3 idx=1073 E_MACE=-432.05004043826597 d_min=1.9716426033561436 d_reactive=3.8905646942554672 E=-432.05004043826597 converged=T n_steps=118 d_z=1.3864162539840006 fingerprint="_JSON [1.11, 1.11, 1.12, 1.19, 1.43, 1.81, 1.81, 1.81, 2.07, 2.08, 2.12, 6.88, 6.88, 7.47, 7.63, 7.73, 7.8, 8.25, 8.42, 8.7, 8.78]" dE_rel_meV=19.623096039538268 energy=-432.05004043826597 stress="0.007554728194926508 9.118526846525199e-06 6.216936331005302e-05 9.118526846525199e-06 0.007653141604080448 -1.9875527373912364e-05 6.216936331005302e-05 -1.9875527373912364e-05 -0.00219285581412775" pbc="T T T"
Pd       0.00000000       0.00000000       1.50000000  F       0.00000000       0.00000000       0.00000000       0.00010797      -0.00208002      -0.22415246
Pd       4.13154905       6.86938148       7.39993302  T       0.00000000       0.00000000       0.00000000      -0.00092619       0.00173975       0.00269684
Pd       1.37420354       6.87321322       7.41539454  T       0.00000000       0.00000000       0.00000000      -0.00392595      -0.00569170      -0.00037825
Pd       9.64007428       4.13629884       7.43202141  T       0.00000000       0.00000000       0.00000000      -0.00149515       0.00044339       0.00300454
Pd       6.88270998       4.12185782       7.41021377  T       0.00000000       0.00000000       0.00000000      -0.00148990      -0.00160166       0.00496896
Pd       4.12463427       4.11771323       7.40870423  T       0.00000000       0.00000000       0.00000000       0.00170618       0.00269410       0.00419037
Pd       1.37058545       4.13156708       7.42882636  T       0.00000000       0.00000000       0.00000000       0.00220597       0.00495167      -0.00049826
Pd       9.61981746       1.36689209       7.44549250  T       0.00000000       0.00000000       0.00000000       0.00551321       0.01124128      -0.00682595
Pd       6.89514719       6.88388991       7.42509407  T       0.00000000       0.00000000       0.00000000       0.00534136       0.00706484       0.00003577
Pd       6.89457076       1.36466223       7.43498531  T       0.00000000       0.00000000       0.00000000      -0.00229575       0.00506106      -0.00166216
Pd       1.37544455       1.37626328       7.41895940  T       0.00000000       0.00000000       0.00000000      -0.00740281       0.00564241      -0.00657751
Pd       8.25894872       8.25913740       5.42898874  T       0.00000000       0.00000000       0.00000000      -0.00331047       0.00135745       0.00125565
Pd       5.50875559       8.25072117       5.42876891  T       0.00000000       0.00000000       0.00000000       0.00040584       0.00300012       0.00106403
Pd       2.74790371       8.25284183       5.42367688  T       0.00000000       0.00000000       0.00000000       0.00329617       0.00188609       0.00375790
Pd      -0.00335854       8.25016139       5.43439065  T       0.00000000       0.00000000       0.00000000      -0.00143936       0.00064408      -0.00563767
Pd       8.25902986       5.50313745       5.43321374  T       0.00000000       0.00000000       0.00000000       0.00164724       0.00496553       0.00053823
Pd       5.50718035       5.49845722       5.42809911  T       0.00000000       0.00000000       0.00000000      -0.00070263       0.00216381       0.00076136
Pd       4.13428051       1.37203568       7.41120324  T       0.00000000       0.00000000       0.00000000      -0.00238361       0.00301007       0.00017867
Pd       2.74912408       5.49656563       5.42633708  T       0.00000000       0.00000000       0.00000000      -0.00255258       0.00397489       0.00497422
Pd       9.62156384       6.88895216       7.44116702  T       0.00000000       0.00000000       0.00000000      -0.00747773      -0.00462175      -0.00125512
Pd       4.12377588       9.62656181       7.40142029  T       0.00000000       0.00000000       0.00000000       0.00787148       0.00427838       0.00244864
Pd       2.77712355       8.25022691       9.39421730  T       0.00000000       0.00000000       0.00000000      -0.00366600      -0.00072749       0.00375366
Pd       0.02647580       8.26822332       9.48191915  T       0.00000000       0.00000000       0.00000000      -0.00188478       0.00719500       0.01034298
Pd       8.23190480       5.48341484       9.40854602  T       0.00000000       0.00000000       0.00000000       0.00195166       0.00486141       0.00557014
Pd       5.50281625       5.48776466       9.40427828  T       0.00000000       0.00000000       0.00000000       0.00214974       0.00699648      -0.00211268
Pd       2.77956651       5.49824524       9.39918382  T       0.00000000       0.00000000       0.00000000       0.00325437       0.00213057       0.00974065
Pd       0.00824387       5.48344310       9.50727784  T       0.00000000       0.00000000       0.00000000      -0.00147114      -0.00379106      -0.00374052
Pd       8.25377878       2.77824823       9.41789000  T       0.00000000       0.00000000       0.00000000       0.00239766      -0.00187695       0.00514087
Pd       1.37050769       9.62352424       7.42032045  T       0.00000000       0.00000000       0.00000000      -0.00298669      -0.00324997      -0.00382750
Pd       5.50377404       2.74736044       9.40674432  T       0.00000000       0.00000000       0.00000000      -0.00250035       0.00649139       0.01033667
Pd       0.00502854       2.75434901       9.41891039  T       0.00000000       0.00000000       0.00000000      -0.00185844      -0.00278356      -0.00212785
Pd       8.26168650       0.06669178       9.47184721  T       0.00000000       0.00000000       0.00000000      -0.00158035       0.00024844      -0.00576542
Pd       5.48452353      -0.00369781       9.40224703  T       0.00000000       0.00000000       0.00000000      -0.00024303       0.00101187       0.00695687
Pd       2.75998463      -0.00455006       9.40657215  T       0.00000000       0.00000000       0.00000000      -0.00531328       0.00676665      -0.00450299
Pd       0.03191003       0.00499772       9.41529309  T       0.00000000       0.00000000       0.00000000       0.00158296       0.00114433      -0.01397108
Pd       9.63418921       9.62580356       7.43628699  T       0.00000000       0.00000000       0.00000000      -0.00511677      -0.00785452      -0.00304010
Pd       6.88622836       9.63215103       7.42154333  T       0.00000000       0.00000000       0.00000000      -0.00473315      -0.00046333      -0.00028677
Pd       2.75676482       2.74484298       9.41167633  T       0.00000000       0.00000000       0.00000000      -0.00168626      -0.00411818      -0.00372410
Pd      -0.00139006       5.50379488       5.43246469  T       0.00000000       0.00000000       0.00000000       0.00054554       0.00105906       0.00945531
Pd       8.25716296       2.74591171       5.43420405  T       0.00000000       0.00000000       0.00000000      -0.00160797      -0.00365645      -0.00428170
Pd       5.50696011       2.74758265       5.43061735  T       0.00000000       0.00000000       0.00000000      -0.00241599       0.00080516      -0.00077422
Pd       1.37558630       1.37558630       3.44537281  F       0.00000000       0.00000000       0.00000000      -0.02730100       0.00356763       0.23357677
Pd       8.25351783       8.25351783       1.50000000  F       0.00000000       0.00000000       0.00000000      -0.00039685      -0.00065120      -0.22370072
Pd       5.50234522       8.25351783       1.50000000  F       0.00000000       0.00000000       0.00000000      -0.00059625       0.00069460      -0.22635660
Pd       2.75117261       8.25351783       1.50000000  F       0.00000000       0.00000000       0.00000000      -0.00025463      -0.00026504      -0.22682846
Pd       0.00000000       8.25351783       1.50000000  F       0.00000000       0.00000000       0.00000000       0.00004487       0.00055017      -0.22051225
Pd       8.25351783       5.50234522       1.50000000  F       0.00000000       0.00000000       0.00000000      -0.00029335       0.00162709      -0.22527749
Pd       5.50234522       5.50234522       1.50000000  F       0.00000000       0.00000000       0.00000000      -0.00130135       0.00189773      -0.22729698
Pd       4.12675891       1.37558630       3.44537281  F       0.00000000       0.00000000       0.00000000       0.02234456      -0.00158594       0.20916017
Pd       2.75117261       5.50234522       1.50000000  F       0.00000000       0.00000000       0.00000000      -0.00036179       0.00104993      -0.22618526
Pd       8.25351783       2.75117261       1.50000000  F       0.00000000       0.00000000       0.00000000      -0.00101720       0.00069852      -0.22693416
Pd       5.50234522       2.75117261       1.50000000  F       0.00000000       0.00000000       0.00000000      -0.00135793      -0.00126831      -0.22509140
Pd       2.75117261       2.75117261       1.50000000  F       0.00000000       0.00000000       0.00000000       0.00026714       0.00166783      -0.22774591
Pd       0.00000000       2.75117261       1.50000000  F       0.00000000       0.00000000       0.00000000       0.00083466       0.00027207      -0.22399750
Pd       8.25351783       0.00000000       1.50000000  F       0.00000000       0.00000000       0.00000000      -0.00159409      -0.00104475      -0.22566167
Pd       5.50234522       0.00000000       1.50000000  F       0.00000000       0.00000000       0.00000000      -0.00052758      -0.00047596      -0.22544009
Pd       2.75117261       0.00000000       1.50000000  F       0.00000000       0.00000000       0.00000000       0.00100477      -0.00134627      -0.22899243
Pd       0.00000000       5.50234522       1.50000000  F       0.00000000       0.00000000       0.00000000       0.00082576       0.00145065      -0.21995178
Pd       6.87793152       1.37558630       3.44537281  F       0.00000000       0.00000000       0.00000000      -0.00255947       0.00705226       0.20492667
Pd       9.62910413       1.37558630       3.44537281  F       0.00000000       0.00000000       0.00000000       0.01877276       0.01231634       0.23002657
Pd       1.37558630       4.12675891       3.44537281  F       0.00000000       0.00000000       0.00000000      -0.01003369      -0.01218284       0.21313590
Pd       2.75048302       2.74661205       5.42822102  T       0.00000000       0.00000000       0.00000000       0.00460090      -0.00203651      -0.00317590
Pd      -0.00210587       2.75356797       5.43835183  T       0.00000000       0.00000000       0.00000000       0.00148136      -0.00104609      -0.00217124
Pd       8.25603035       0.00174845       5.42869315  T       0.00000000       0.00000000       0.00000000      -0.00085749      -0.00627758       0.00327844
Pd       5.50892466      -0.00049360       5.43131382  T       0.00000000       0.00000000       0.00000000       0.00006901       0.00025242      -0.00393104
Pd       2.75148395       0.00252561       5.42415198  T       0.00000000       0.00000000       0.00000000       0.00190117      -0.00056586       0.00300272
Pd      -0.00362850       0.00154927       5.43686665  T       0.00000000       0.00000000       0.00000000       0.00172266      -0.00409653       0.00085319
Pd       9.62910413       9.62910413       3.44537281  F       0.00000000       0.00000000       0.00000000       0.02146485       0.00763645       0.21902769
Pd       6.87793152       9.62910413       3.44537281  F       0.00000000       0.00000000       0.00000000      -0.00035979      -0.00081044       0.20921246
Pd       4.12675891       9.62910413       3.44537281  F       0.00000000       0.00000000       0.00000000       0.01031399      -0.00273249       0.22459593
Pd       1.37558630       9.62910413       3.44537281  F       0.00000000       0.00000000       0.00000000      -0.02226930       0.00623564       0.22858343
Pd       9.62910413       6.87793152       3.44537281  F       0.00000000       0.00000000       0.00000000       0.00474675      -0.00545899       0.21916149
Pd       6.87793152       6.87793152       3.44537281  F       0.00000000       0.00000000       0.00000000       0.01132849      -0.00824019       0.22232164
Pd       4.12675891       6.87793152       3.44537281  F       0.00000000       0.00000000       0.00000000       0.01011580      -0.00565511       0.22526973
Pd       1.37558630       6.87793152       3.44537281  F       0.00000000       0.00000000       0.00000000      -0.01394469      -0.00358057       0.22021233
Pd       9.62910413       4.12675891       3.44537281  F       0.00000000       0.00000000       0.00000000       0.00416160      -0.00852291       0.23778219
Pd       6.87793152       4.12675891       3.44537281  F       0.00000000       0.00000000       0.00000000       0.01760903      -0.00577929       0.23660750
Pd       4.12675891       4.12675891       3.44537281  F       0.00000000       0.00000000       0.00000000      -0.00146838      -0.01019444       0.21190244
Pd       5.48080594       8.23944263       9.39331675  T       0.00000000       0.00000000       0.00000000      -0.00305449       0.00456591      -0.00495370
Pd       8.21846873       8.20104085       9.45740362  T       0.00000000       0.00000000       0.00000000      -0.01057869      -0.00423917       0.00469954
C        0.03029140       6.88513438      10.89369409  T       0.00000000       0.00000000       0.00000000       0.00304208      -0.01572279       0.02206367
O        0.01646904       6.91045511      12.08105438  T       0.00000000       0.00000000       0.00000000      -0.00316996       0.00079231       0.00568464
O        8.28751456       9.63750981      11.00480998  T       0.00000000       0.00000000       0.00000000       0.00611986      -0.01863855       0.01338969
C        7.24323156       9.65807652      11.98013954  T       0.00000000       0.00000000       0.00000000      -0.01764412       0.00998021       0.01743106
H        7.25100198       8.70498689      12.54200488  T       0.00000000       0.00000000       0.00000000       0.00657354       0.02506768      -0.01370918
H        7.42237524      10.50200521      12.67331337  T       0.00000000       0.00000000       0.00000000      -0.00192158      -0.01975610      -0.01254398
H        6.23599845       9.78865095      11.50979828  T       0.00000000       0.00000000       0.00000000       0.00600709      -0.00551415       0.00852186
