87
Lattice="11.004690437655821 0.0 0.0 0.0 11.004690437655821 0.0 0.0 0.0 27.781491233325184" Properties=species:S:1:pos:R:3:move_mask:L:1:momenta:R:3:forces:R:3 idx=487 E_MACE=-432.0193219865356 d_min=1.9761206305437147 d_reactive=2.989373523266858 E=-432.0193219865356 converged=T n_steps=84 d_z=1.366754864025248 fingerprint="_JSON [1.1, 1.11, 1.11, 1.19, 1.43, 1.8, 1.81, 1.81, 2.06, 2.06, 2.12, 2.99, 3.33, 3.92, 4.03, 4.05, 4.06, 4.13, 4.26, 5.02, 5.11]" dE_rel_meV=50.34154776990363 energy=-432.0193219865356 stress="0.00764362591602081 2.6092582976402145e-05 -0.00019862871418619687 2.6092582976402145e-05 0.007601858953338624 -5.780656359782052e-05 -0.00019862871418619687 -5.780656359782052e-05 -0.002135190842850288" pbc="T T T"
Pd       0.00000000       0.00000000       1.50000000  F       0.00000000       0.00000000       0.00000000       0.00213065       0.00063146      -0.22058663
Pd       4.11202522       6.88186694       7.41068874  T       0.00000000       0.00000000       0.00000000      -0.01022669      -0.00809569       0.02510708
Pd       1.35510404       6.88124229       7.40085199  T       0.00000000       0.00000000       0.00000000       0.01729576      -0.00493569       0.00027858
Pd       9.62141768       4.10821663       7.43545167  T       0.00000000       0.00000000       0.00000000       0.01761982      -0.01340789       0.00366578
Pd       6.86735377       4.13237126       7.41596680  T       0.00000000       0.00000000       0.00000000      -0.00406423       0.01413739      -0.00199181
Pd       4.11076624       4.11595948       7.43126443  T       0.00000000       0.00000000       0.00000000      -0.00803958      -0.01347145       0.01616626
Pd       1.36198471       4.12134352       7.41821164  T       0.00000000       0.00000000       0.00000000      -0.00037869       0.00059380      -0.00733021
Pd       9.63926837       1.37612983       7.45609246  T       0.00000000       0.00000000       0.00000000       0.01836351       0.02596932      -0.00862201
Pd       6.85586443       6.88369019       7.41614055  T       0.00000000       0.00000000       0.00000000       0.01821375      -0.02374325       0.00615100
Pd       6.87379384       1.38226910       7.41890872  T       0.00000000       0.00000000       0.00000000       0.00578150      -0.02242037      -0.00187066
Pd       1.36774902       1.37938157       7.43142549  T       0.00000000       0.00000000       0.00000000      -0.00814887      -0.00507619      -0.00073616
Pd       8.24017477       8.25125969       5.43017344  T       0.00000000       0.00000000       0.00000000       0.01927538       0.01380998      -0.01871953
Pd       5.49385729       8.25393901       5.42901519  T       0.00000000       0.00000000       0.00000000       0.00728713       0.00536799      -0.02802640
Pd       2.74439810       8.25891696       5.42725631  T       0.00000000       0.00000000       0.00000000       0.00352930      -0.01386400      -0.01030880
Pd      -0.01345042       8.25437112       5.42967935  T       0.00000000       0.00000000       0.00000000      -0.00086681       0.00950018      -0.02211441
Pd       8.24314716       5.50102374       5.43060538  T       0.00000000       0.00000000       0.00000000       0.00892180      -0.00709123       0.01752898
Pd       5.49146322       5.50141558       5.43426840  T       0.00000000       0.00000000       0.00000000       0.01075304       0.00412821      -0.02497255
Pd       4.10415999       1.38356687       7.44691826  T       0.00000000       0.00000000       0.00000000       0.01302924      -0.01211717      -0.00228627
Pd       2.74308385       5.49805922       5.43222567  T       0.00000000       0.00000000       0.00000000       0.00531929       0.00628426      -0.01605960
Pd       9.60333885       6.87709850       7.41484463  T       0.00000000       0.00000000       0.00000000      -0.00887024      -0.01081313      -0.02201541
Pd       4.11119306       9.64188622       7.42043737  T       0.00000000       0.00000000       0.00000000       0.00112556      -0.00377654       0.00145865
Pd       2.73781102       8.23463932       9.40247198  T       0.00000000       0.00000000       0.00000000      -0.00081850      -0.02162587      -0.00297682
Pd      -0.02030706       8.22287269       9.40492589  T       0.00000000       0.00000000       0.00000000       0.01308709       0.01337703      -0.00392883
Pd       8.21310186       5.50851358       9.41399390  T       0.00000000       0.00000000       0.00000000       0.02817379       0.00496851      -0.00380433
Pd       5.46602980       5.51040266       9.41472331  T       0.00000000       0.00000000       0.00000000       0.03302084       0.00363227      -0.01270184
Pd       2.71932556       5.52524465       9.40155079  T       0.00000000       0.00000000       0.00000000       0.02364374      -0.00165435       0.00285623
Pd      -0.03907169       5.52310902       9.39594863  T       0.00000000       0.00000000       0.00000000       0.01446263      -0.00784286       0.02110483
Pd       8.22778040       2.75888874       9.42076562  T       0.00000000       0.00000000       0.00000000       0.00586901      -0.01874986      -0.00035310
Pd       1.36258582       9.63016081       7.41549538  T       0.00000000       0.00000000       0.00000000       0.00074456       0.01096571      -0.00909085
Pd       5.52787111       2.75561027       9.41510868  T       0.00000000       0.00000000       0.00000000      -0.01024224       0.01582102       0.01260491
Pd      -0.06265769       2.78840394       9.47717837  T       0.00000000       0.00000000       0.00000000      -0.03665067       0.00641174      -0.00061280
Pd       8.23544990       0.00293673       9.41839850  T       0.00000000       0.00000000       0.00000000      -0.01382418      -0.00866200      -0.01113838
Pd       5.49088106       0.00791882       9.41157118  T       0.00000000       0.00000000       0.00000000       0.02156855      -0.00946488       0.00829959
Pd       2.76591885      -0.02507927       9.49388891  T       0.00000000       0.00000000       0.00000000      -0.01579112      -0.02235034       0.00115819
Pd      -0.04001100      -0.03571050       9.49235735  T       0.00000000       0.00000000       0.00000000       0.00691123       0.01962355      -0.00617824
Pd       9.61649120       9.63700707       7.42294250  T       0.00000000       0.00000000       0.00000000      -0.00169457      -0.00280294      -0.00788748
Pd       6.86083968       9.63251246       7.41482836  T       0.00000000       0.00000000       0.00000000       0.03913572       0.01250335       0.01441157
Pd       2.81926692       2.77871172       9.44831307  T       0.00000000       0.00000000       0.00000000       0.01853376       0.00327686       0.00253483
Pd      -0.01471157       5.49694022       5.43051389  T       0.00000000       0.00000000       0.00000000       0.00613299      -0.00506530       0.00842519
Pd       8.25341437       2.75153476       5.43184667  T       0.00000000       0.00000000       0.00000000       0.00604803      -0.00149208       0.01114754
Pd       5.49995043       2.75423568       5.43322488  T       0.00000000       0.00000000       0.00000000      -0.00667473      -0.00384187      -0.00911256
Pd       1.37558630       1.37558630       3.44537281  F       0.00000000       0.00000000       0.00000000      -0.00708185      -0.01072857       0.21072050
Pd       8.25351783       8.25351783       1.50000000  F       0.00000000       0.00000000       0.00000000       0.00344143      -0.00005404      -0.22789240
Pd       5.50234522       8.25351783       1.50000000  F       0.00000000       0.00000000       0.00000000       0.00090421      -0.00005828      -0.22698460
Pd       2.75117261       8.25351783       1.50000000  F       0.00000000       0.00000000       0.00000000       0.00037479       0.00079143      -0.22579047
Pd       0.00000000       8.25351783       1.50000000  F       0.00000000       0.00000000       0.00000000       0.00234749       0.00034260      -0.22650042
Pd       8.25351783       5.50234522       1.50000000  F       0.00000000       0.00000000       0.00000000       0.00138842       0.00018428      -0.22631678
Pd       5.50234522       5.50234522       1.50000000  F       0.00000000       0.00000000       0.00000000       0.00088248       0.00017728      -0.22525368
Pd       4.12675891       1.37558630       3.44537281  F       0.00000000       0.00000000       0.00000000       0.00962573       0.00156722       0.21642950
Pd       2.75117261       5.50234522       1.50000000  F       0.00000000       0.00000000       0.00000000       0.00050390      -0.00012785      -0.22619810
Pd       8.25351783       2.75117261       1.50000000  F       0.00000000       0.00000000       0.00000000       0.00322655       0.00042068      -0.22787771
Pd       5.50234522       2.75117261       1.50000000  F       0.00000000       0.00000000       0.00000000      -0.00029841      -0.00000247      -0.22734664
Pd       2.75117261       2.75117261       1.50000000  F       0.00000000       0.00000000       0.00000000       0.00077568      -0.00090643      -0.22384020
Pd       0.00000000       2.75117261       1.50000000  F       0.00000000       0.00000000       0.00000000       0.00211761      -0.00016387      -0.22423859
Pd       8.25351783       0.00000000       1.50000000  F       0.00000000       0.00000000       0.00000000       0.00293078      -0.00035159      -0.22509447
Pd       5.50234522       0.00000000       1.50000000  F       0.00000000       0.00000000       0.00000000      -0.00075031      -0.00061148      -0.22477854
Pd       2.75117261       0.00000000       1.50000000  F       0.00000000       0.00000000       0.00000000      -0.00010887       0.00043647      -0.22140801
Pd       0.00000000       5.50234522       1.50000000  F       0.00000000       0.00000000       0.00000000       0.00218104      -0.00030786      -0.22675168
Pd       6.87793152       1.37558630       3.44537281  F       0.00000000       0.00000000       0.00000000      -0.00629677      -0.00714534       0.24785620
Pd       9.62910413       1.37558630       3.44537281  F       0.00000000       0.00000000       0.00000000      -0.02011051      -0.01307743       0.22740469
Pd       1.37558630       4.12675891       3.44537281  F       0.00000000       0.00000000       0.00000000      -0.01058583       0.00800305       0.21682385
Pd       2.74980772       2.74839905       5.42851301  T       0.00000000       0.00000000       0.00000000      -0.01321951       0.00185289       0.01607768
Pd      -0.00195135       2.74654771       5.42915150  T       0.00000000       0.00000000       0.00000000      -0.01113615      -0.00709159       0.01667238
Pd       8.24860186       0.00247435       5.43691633  T       0.00000000       0.00000000       0.00000000       0.01856001       0.00708648      -0.00374436
Pd       5.49119270       0.00608062       5.43545197  T       0.00000000       0.00000000       0.00000000       0.02824168      -0.00214926      -0.00646419
Pd       2.74741262       0.00520803       5.43202597  T       0.00000000       0.00000000       0.00000000      -0.02211310       0.00467082       0.01167922
Pd      -0.00381974       0.00151170       5.43216654  T       0.00000000       0.00000000       0.00000000      -0.01401908       0.01560378       0.02279889
Pd       9.62910413       9.62910413       3.44537281  F       0.00000000       0.00000000       0.00000000      -0.02535314       0.00993700       0.23994447
Pd       6.87793152       9.62910413       3.44537281  F       0.00000000       0.00000000       0.00000000      -0.01538464       0.01439277       0.23147254
Pd       4.12675891       9.62910413       3.44537281  F       0.00000000       0.00000000       0.00000000      -0.00492119       0.01358985       0.22368066
Pd       1.37558630       9.62910413       3.44537281  F       0.00000000       0.00000000       0.00000000      -0.01711874       0.00589171       0.22580917
Pd       9.62910413       6.87793152       3.44537281  F       0.00000000       0.00000000       0.00000000      -0.01840461      -0.00286459       0.22757771
Pd       6.87793152       6.87793152       3.44537281  F       0.00000000       0.00000000       0.00000000      -0.02526759      -0.00636742       0.20074591
Pd       4.12675891       6.87793152       3.44537281  F       0.00000000       0.00000000       0.00000000      -0.02177416      -0.00772893       0.23451512
Pd       1.37558630       6.87793152       3.44537281  F       0.00000000       0.00000000       0.00000000      -0.01933500      -0.00657793       0.23995648
Pd       9.62910413       4.12675891       3.44537281  F       0.00000000       0.00000000       0.00000000      -0.01684648      -0.00556882       0.21950590
Pd       6.87793152       4.12675891       3.44537281  F       0.00000000       0.00000000       0.00000000      -0.01473409       0.00787890       0.21962939
Pd       4.12675891       4.12675891       3.44537281  F       0.00000000       0.00000000       0.00000000      -0.00289027       0.00411141       0.22503754
Pd       5.48899014       8.26427407       9.41017497  T       0.00000000       0.00000000       0.00000000      -0.00712586      -0.01887160       0.00519643
Pd       8.23638595       8.25615024       9.41359460  T       0.00000000       0.00000000       0.00000000      -0.01009648       0.00817860      -0.01042628
C        1.36041562      -0.30338620      10.86064377  T       0.00000000       0.00000000       0.00000000       0.00002627      -0.01439936       0.03150830
O        1.35276322      -0.46720910      12.03719700  T       0.00000000       0.00000000       0.00000000       0.01699463      -0.01503965      -0.01166090
O        1.40411210       2.68353407      10.97356869  T       0.00000000       0.00000000       0.00000000       0.02648264      -0.01523778       0.00386620
C        1.51137753       3.56275489      12.09479339  T       0.00000000       0.00000000       0.00000000       0.00751912       0.02716099       0.02468843
H        2.39332914       3.25342981      12.68727576  T       0.00000000       0.00000000       0.00000000      -0.02894604       0.03404033       0.00515533
H        1.63070879       4.62526388      11.79118407  T       0.00000000       0.00000000       0.00000000      -0.01877521       0.00822243      -0.03226048
H        0.60193284       3.45448073      12.71299228  T       0.00000000       0.00000000       0.00000000      -0.01551713       0.03225349       0.00660246
