87
Lattice="11.004690437655821 0.0 0.0 0.0 11.004690437655821 0.0 0.0 0.0 27.781491233325184" Properties=species:S:1:pos:R:3:move_mask:L:1:momenta:R:3:forces:R:3 idx=767 E_MACE=-432.0511505530256 d_min=1.9785346654468212 d_reactive=3.1005681879917275 E=-432.0511505530256 converged=T n_steps=82 d_z=1.373750778321842 fingerprint="_JSON [1.11, 1.11, 1.12, 1.19, 1.43, 1.81, 1.81, 1.81, 2.07, 2.07, 2.12, 3.1, 3.44, 4.29, 4.32, 4.33, 4.38, 4.48, 4.51, 5.19, 5.36]" dE_rel_meV=18.512981279911855 energy=-432.0511505530256 stress="0.007605301712517886 5.895909235641548e-06 -0.0001788236920181443 5.895909235641548e-06 0.007539281313452932 -5.877018104925144e-05 -0.0001788236920181443 -5.877018104925144e-05 -0.0021913742200981544" pbc="T T T"
Pd       0.00000000       0.00000000       1.50000000  F       0.00000000       0.00000000       0.00000000       0.00188519       0.00079469      -0.22010148
Pd       4.11445542       6.89412616       7.42907646  T       0.00000000       0.00000000       0.00000000      -0.00959092       0.00527796       0.00819693
Pd       1.36417612       6.87768542       7.42104749  T       0.00000000       0.00000000       0.00000000       0.01225902       0.00331284      -0.00877060
Pd       9.61298409       4.12249015       7.41057302  T       0.00000000       0.00000000       0.00000000      -0.00116823       0.01021623      -0.00549386
Pd       6.86767254       4.12636130       7.41027006  T       0.00000000       0.00000000       0.00000000       0.00830673      -0.00360023       0.00362299
Pd       4.12242691       4.12536732       7.40299580  T       0.00000000       0.00000000       0.00000000      -0.00564564      -0.00256157       0.01305348
Pd       1.36157345       4.11744587       7.39661577  T       0.00000000       0.00000000       0.00000000       0.01452201      -0.00198932      -0.00375176
Pd       9.62416630       1.36139544       7.42027500  T       0.00000000       0.00000000       0.00000000      -0.00263266      -0.00158238      -0.00102432
Pd       6.86954278       6.87560008       7.41409151  T       0.00000000       0.00000000       0.00000000       0.00443007       0.00705510       0.00106346
Pd       6.86900414       1.37489245       7.41239239  T       0.00000000       0.00000000       0.00000000       0.00997548       0.00249828       0.00333344
Pd       1.36790399       1.36545258       7.41107117  T       0.00000000       0.00000000       0.00000000      -0.00360907       0.00020067       0.00352039
Pd       8.25341384       8.25268113       5.43363759  T       0.00000000       0.00000000       0.00000000      -0.00535462       0.00609004      -0.00153134
Pd       5.49876158       8.25353431       5.43132469  T       0.00000000       0.00000000       0.00000000      -0.01018376       0.01034638       0.00795158
Pd       2.74703578       8.25559674       5.43047977  T       0.00000000       0.00000000       0.00000000       0.00209308      -0.00027115       0.00381389
Pd      -0.00353800       8.25429103       5.43158509  T       0.00000000       0.00000000       0.00000000       0.00483332       0.00390339      -0.00052851
Pd       8.24959179       5.50523395       5.43066643  T       0.00000000       0.00000000       0.00000000       0.00170656      -0.00434074       0.00090075
Pd       5.49696545       5.50637807       5.43065103  T       0.00000000       0.00000000       0.00000000       0.00051280      -0.00307998      -0.01201771
Pd       4.11683753       1.36305080       7.41928202  T       0.00000000       0.00000000       0.00000000       0.00196755      -0.00182667      -0.00361923
Pd       2.74638319       5.50581295       5.42989282  T       0.00000000       0.00000000       0.00000000       0.01039418       0.00449006      -0.00055571
Pd       9.62484740       6.89064384       7.43456537  T       0.00000000       0.00000000       0.00000000      -0.00157012      -0.00414572      -0.00390188
Pd       4.10301008       9.62336489       7.45553446  T       0.00000000       0.00000000       0.00000000      -0.00294207      -0.00731493       0.00211970
Pd       2.80046411       8.21100061       9.46961820  T       0.00000000       0.00000000       0.00000000       0.00747074       0.00965352       0.01784923
Pd      -0.07875968       8.22164278       9.46796021  T       0.00000000       0.00000000       0.00000000      -0.00514443      -0.00315104      -0.00352255
Pd       8.23824906       5.49373985       9.41042138  T       0.00000000       0.00000000       0.00000000       0.00171753       0.00996935       0.00008805
Pd       5.49521439       5.50081222       9.40723389  T       0.00000000       0.00000000       0.00000000       0.00179758      -0.00347149       0.00187070
Pd       2.75018308       5.46946362       9.38787166  T       0.00000000       0.00000000       0.00000000       0.00443151       0.00124198       0.00865440
Pd      -0.01796005       5.47039398       9.40069033  T       0.00000000       0.00000000       0.00000000      -0.00250911       0.00340183      -0.01201216
Pd       8.23367560       2.74663269       9.40727283  T       0.00000000       0.00000000       0.00000000       0.00756721       0.00117256       0.00104231
Pd       1.37120576       9.61777343       7.43578193  T       0.00000000       0.00000000       0.00000000      -0.00252101       0.00904727      -0.00648520
Pd       5.48570034       2.75259693       9.40391194  T       0.00000000       0.00000000       0.00000000       0.01184331       0.00279463       0.00704671
Pd      -0.02030920       2.76518274       9.39940247  T       0.00000000       0.00000000       0.00000000       0.01220898       0.00654193      -0.00257707
Pd       8.24503036      -0.00115882       9.41194240  T       0.00000000       0.00000000       0.00000000      -0.00385814       0.00031693       0.00630106
Pd       5.50108089       0.00474212       9.41520705  T       0.00000000       0.00000000       0.00000000       0.00851481      -0.00471051      -0.00168210
Pd       2.77114432       0.02054827       9.49654714  T       0.00000000       0.00000000       0.00000000      -0.00630723      -0.00488683       0.00203651
Pd      -0.02769260       0.02138164       9.49863527  T       0.00000000       0.00000000       0.00000000       0.01499927       0.00530276       0.01771180
Pd       9.64304825       9.62072975       7.45520784  T       0.00000000       0.00000000       0.00000000      -0.00441026       0.00191198       0.00268597
Pd       6.87133851       9.62845985       7.41844817  T       0.00000000       0.00000000       0.00000000       0.00215874      -0.00496024       0.00419178
Pd       2.73588633       2.76769797       9.39351189  T       0.00000000       0.00000000       0.00000000       0.01134492       0.00091185       0.00742287
Pd      -0.00895372       5.50533159       5.42972352  T       0.00000000       0.00000000       0.00000000       0.00056651       0.00266422       0.00268724
Pd       8.24666508       2.75080467       5.42564304  T       0.00000000       0.00000000       0.00000000      -0.00028396      -0.00246809       0.00001888
Pd       5.49946796       2.75184839       5.42496304  T       0.00000000       0.00000000       0.00000000       0.00082432      -0.00524507      -0.00383578
Pd       1.37558630       1.37558630       3.44537281  F       0.00000000       0.00000000       0.00000000      -0.00703324      -0.02226597       0.22354233
Pd       8.25351783       8.25351783       1.50000000  F       0.00000000       0.00000000       0.00000000       0.00209202      -0.00023808      -0.22702614
Pd       5.50234522       8.25351783       1.50000000  F       0.00000000       0.00000000       0.00000000      -0.00101910      -0.00023705      -0.22731837
Pd       2.75117261       8.25351783       1.50000000  F       0.00000000       0.00000000       0.00000000       0.00024417       0.00050796      -0.22324945
Pd       0.00000000       8.25351783       1.50000000  F       0.00000000       0.00000000       0.00000000       0.00118784       0.00020889      -0.22339801
Pd       8.25351783       5.50234522       1.50000000  F       0.00000000       0.00000000       0.00000000       0.00072549      -0.00096183      -0.22518277
Pd       5.50234522       5.50234522       1.50000000  F       0.00000000       0.00000000       0.00000000       0.00053765      -0.00113531      -0.22587267
Pd       4.12675891       1.37558630       3.44537281  F       0.00000000       0.00000000       0.00000000      -0.00010313      -0.02199510       0.22182116
Pd       2.75117261       5.50234522       1.50000000  F       0.00000000       0.00000000       0.00000000       0.00056842      -0.00041711      -0.22615625
Pd       8.25351783       2.75117261       1.50000000  F       0.00000000       0.00000000       0.00000000       0.00158363       0.00038721      -0.22778248
Pd       5.50234522       2.75117261       1.50000000  F       0.00000000       0.00000000       0.00000000      -0.00036304       0.00042063      -0.22814728
Pd       2.75117261       2.75117261       1.50000000  F       0.00000000       0.00000000       0.00000000       0.00007712       0.00002259      -0.22645652
Pd       0.00000000       2.75117261       1.50000000  F       0.00000000       0.00000000       0.00000000       0.00159840       0.00054362      -0.22657425
Pd       8.25351783       0.00000000       1.50000000  F       0.00000000       0.00000000       0.00000000       0.00209320       0.00154317      -0.22460417
Pd       5.50234522       0.00000000       1.50000000  F       0.00000000       0.00000000       0.00000000      -0.00113895       0.00170187      -0.22496024
Pd       2.75117261       0.00000000       1.50000000  F       0.00000000       0.00000000       0.00000000      -0.00002747       0.00071075      -0.22043709
Pd       0.00000000       5.50234522       1.50000000  F       0.00000000       0.00000000       0.00000000       0.00157696      -0.00028385      -0.22609975
Pd       6.87793152       1.37558630       3.44537281  F       0.00000000       0.00000000       0.00000000      -0.00424604      -0.01770442       0.21591434
Pd       9.62910413       1.37558630       3.44537281  F       0.00000000       0.00000000       0.00000000      -0.01545679      -0.02525767       0.22362242
Pd       1.37558630       4.12675891       3.44537281  F       0.00000000       0.00000000       0.00000000      -0.01187396       0.00304837       0.22966118
Pd       2.74835223       2.74432182       5.42444576  T       0.00000000       0.00000000       0.00000000       0.00424464       0.00506678      -0.00160229
Pd      -0.00986989       2.74476847       5.42485877  T       0.00000000       0.00000000       0.00000000       0.00510718       0.00036076      -0.00147759
Pd       8.25404348      -0.00524870       5.43573537  T       0.00000000       0.00000000       0.00000000       0.00612208      -0.00093438       0.00170937
Pd       5.49818018      -0.00408108       5.43389853  T       0.00000000       0.00000000       0.00000000      -0.01205276      -0.00462823       0.00986276
Pd       2.75006864      -0.00840440       5.43342504  T       0.00000000       0.00000000       0.00000000      -0.00878190      -0.00352596       0.00727420
Pd      -0.00191401      -0.00877970       5.43249905  T       0.00000000       0.00000000       0.00000000       0.00034915      -0.00286003       0.01473803
Pd       9.62910413       9.62910413       3.44537281  F       0.00000000       0.00000000       0.00000000      -0.01647682      -0.00016877       0.22257878
Pd       6.87793152       9.62910413       3.44537281  F       0.00000000       0.00000000       0.00000000       0.00061457       0.00408751       0.24180349
Pd       4.12675891       9.62910413       3.44537281  F       0.00000000       0.00000000       0.00000000       0.00658396       0.00141660       0.21907003
Pd       1.37558630       9.62910413       3.44537281  F       0.00000000       0.00000000       0.00000000      -0.00474908       0.00169836       0.21342931
Pd       9.62910413       6.87793152       3.44537281  F       0.00000000       0.00000000       0.00000000      -0.01265603       0.00504977       0.21856359
Pd       6.87793152       6.87793152       3.44537281  F       0.00000000       0.00000000       0.00000000      -0.00425285      -0.00184914       0.21597751
Pd       4.12675891       6.87793152       3.44537281  F       0.00000000       0.00000000       0.00000000      -0.00574359       0.00397839       0.22261828
Pd       1.37558630       6.87793152       3.44537281  F       0.00000000       0.00000000       0.00000000      -0.00964384      -0.00505590       0.21413807
Pd       9.62910413       4.12675891       3.44537281  F       0.00000000       0.00000000       0.00000000      -0.00932343       0.00671346       0.21969831
Pd       6.87793152       4.12675891       3.44537281  F       0.00000000       0.00000000       0.00000000      -0.00906183       0.01326106       0.19427369
Pd       4.12675891       4.12675891       3.44537281  F       0.00000000       0.00000000       0.00000000      -0.01397338       0.00969499       0.22593540
Pd       5.51311386       8.25444715       9.41891628  T       0.00000000       0.00000000       0.00000000       0.00255075      -0.00465004      -0.00410103
Pd       8.21339405       8.24925065       9.41730880  T       0.00000000       0.00000000       0.00000000       0.01428046      -0.00225537       0.00519102
C        1.37545848      11.29676724      10.87238605  T       0.00000000       0.00000000       0.00000000      -0.00626851       0.00210730      -0.04783375
O        1.38186553      11.47132691      12.04633826  T       0.00000000       0.00000000       0.00000000      -0.01099066       0.00861067       0.03887928
O        1.35239023       8.19896051      11.00116641  T       0.00000000       0.00000000       0.00000000       0.00531672       0.02051514       0.01595384
C        1.32547036       7.15275215      11.97305322  T       0.00000000       0.00000000       0.00000000       0.00443961       0.00462428      -0.01414932
H        2.23924864       7.21561561      12.59140025  T       0.00000000       0.00000000       0.00000000       0.00981797      -0.00107989       0.00709565
H        0.43223242       7.28228803      12.61229820  T       0.00000000       0.00000000       0.00000000       0.01242300      -0.00659764      -0.01438855
H        1.28575292       6.14137128      11.49659208  T       0.00000000       0.00000000       0.00000000      -0.00949877      -0.02168885       0.00769305
