       N       E                     dE             d eps       ncg     rms          rms(c)
DAV:   1     0.139894958504E+05    0.13989E+05   -0.84319E+05 20608   0.147E+03
DAV:   2     0.285908649562E+03   -0.13704E+05   -0.13210E+05 20480   0.414E+02
DAV:   3    -0.744911102780E+03   -0.10308E+04   -0.99603E+03 20152   0.109E+02
DAV:   4    -0.773729501740E+03   -0.28818E+02   -0.28635E+02 19928   0.185E+01
DAV:   5    -0.774246762731E+03   -0.51726E+00   -0.51668E+00 20024   0.258E+00    0.993E+01
DAV:   6    -0.643654583915E+03    0.13059E+03   -0.75639E+02 19112   0.436E+01    0.682E+01
DAV:   7    -0.147613704547E+04   -0.83248E+03   -0.35723E+02 22204   0.752E+01    0.186E+02
DAV:   8    -0.642304532850E+03    0.83383E+03   -0.12205E+03 23728   0.411E+01    0.695E+01
DAV:   9    -0.599057838365E+03    0.43247E+02   -0.30345E+02 20104   0.232E+01    0.423E+01
DAV:  10    -0.579861275269E+03    0.19197E+02   -0.53157E+01 19632   0.104E+01    0.316E+01
DAV:  11    -0.579549057383E+03    0.31222E+00   -0.15914E+01 19356   0.719E+00    0.289E+01
DAV:  12    -0.589501602678E+03   -0.99525E+01   -0.13713E+01 18976   0.719E+00    0.237E+01
DAV:  13    -0.598783624848E+03   -0.92820E+01   -0.15015E+01 18976   0.624E+00    0.206E+01
DAV:  14    -0.600415174203E+03   -0.16315E+01   -0.18813E+00 19240   0.193E+00    0.191E+01
DAV:  15    -0.612608685235E+03   -0.12194E+02   -0.97785E+00 18964   0.441E+00    0.181E+01
DAV:  16    -0.621009029381E+03   -0.84003E+01   -0.63012E+00 19552   0.432E+00    0.159E+01
DAV:  17    -0.634601429089E+03   -0.13592E+02   -0.73067E+00 19440   0.444E+00    0.143E+01
DAV:  18    -0.649528794952E+03   -0.14927E+02   -0.10704E+01 19288   0.425E+00    0.134E+01
DAV:  19    -0.654585969647E+03   -0.50572E+01   -0.54506E+00 19464   0.374E+00    0.108E+01
DAV:  20    -0.657911893391E+03   -0.33259E+01   -0.57588E+00 19312   0.364E+00    0.932E+00
DAV:  21    -0.661209495399E+03   -0.32976E+01   -0.32244E+00 19080   0.265E+00    0.889E+00
DAV:  22    -0.667260810615E+03   -0.60513E+01   -0.20920E+00 19100   0.242E+00    0.687E+00
DAV:  23    -0.672846393862E+03   -0.55856E+01   -0.20064E+00 18872   0.232E+00    0.525E+00
DAV:  24    -0.675698140048E+03   -0.28517E+01   -0.11239E+00 18812   0.170E+00    0.400E+00
DAV:  25    -0.679105183671E+03   -0.34070E+01   -0.68102E-01 18856   0.136E+00    0.337E+00
DAV:  26    -0.681777893298E+03   -0.26727E+01   -0.55518E-01 18852   0.134E+00    0.319E+00
DAV:  27    -0.684794471397E+03   -0.30166E+01   -0.64406E-01 18896   0.118E+00    0.237E+00
DAV:  28    -0.685959725772E+03   -0.11653E+01   -0.28381E-01 19112   0.965E-01    0.211E+00
DAV:  29    -0.686506268214E+03   -0.54654E+00   -0.14945E-01 18992   0.651E-01    0.174E+00
DAV:  30    -0.687851486901E+03   -0.13452E+01   -0.21424E-01 18760   0.700E-01    0.184E+00
DAV:  31    -0.688945820512E+03   -0.10943E+01   -0.29051E-01 19076   0.692E-01    0.136E+00
DAV:  32    -0.689634570705E+03   -0.68875E+00   -0.16179E-01 18884   0.587E-01    0.116E+00
DAV:  33    -0.689912517652E+03   -0.27795E+00   -0.63753E-02 18976   0.431E-01    0.900E-01
DAV:  34    -0.690212677036E+03   -0.30016E+00   -0.40239E-02 18872   0.357E-01    0.707E-01
DAV:  35    -0.690453079829E+03   -0.24040E+00   -0.26283E-02 18544   0.318E-01    0.675E-01
DAV:  36    -0.690622375243E+03   -0.16930E+00   -0.22757E-02 18756   0.267E-01    0.634E-01
DAV:  37    -0.690822359586E+03   -0.19998E+00   -0.15345E-02 18688   0.223E-01    0.419E-01
DAV:  38    -0.691084272032E+03   -0.26191E+00   -0.65107E-03 18652   0.180E-01    0.287E-01
DAV:  39    -0.691236359762E+03   -0.15209E+00   -0.22567E-03 18620   0.132E-01    0.214E-01
DAV:  40    -0.691316431739E+03   -0.80072E-01   -0.13845E-03 18960   0.894E-02    0.193E-01
DAV:  41    -0.691377331126E+03   -0.60899E-01   -0.10959E-03 18780   0.761E-02    0.148E-01
DAV:  42    -0.691441059189E+03   -0.63728E-01   -0.69265E-03 18896   0.145E-01    0.546E-01
DAV:  43    -0.691435575621E+03    0.54836E-02   -0.29879E-03 18640   0.944E-02    0.206E-01
DAV:  44    -0.691471459813E+03   -0.35884E-01   -0.74899E-04 19244   0.832E-02    0.801E-02
DAV:  45    -0.691486174228E+03   -0.14714E-01   -0.30529E-04 19084   0.341E-02    0.932E-02
DAV:  46    -0.691489732133E+03   -0.35579E-02   -0.62232E-05 19084   0.190E-02    0.109E-01
DAV:  47    -0.691491327695E+03   -0.15956E-02   -0.20430E-05 18880   0.105E-02    0.910E-02
DAV:  48    -0.691494280326E+03   -0.29526E-02   -0.34173E-05 17800   0.126E-02    0.592E-02
DAV:  49    -0.691495525270E+03   -0.12449E-02   -0.21507E-05 16340   0.140E-02    0.214E-02
DAV:  50    -0.691495860417E+03   -0.33515E-03   -0.14076E-05 16908   0.605E-03    0.181E-02
DAV:  51    -0.691496053172E+03   -0.19275E-03   -0.11107E-05 16544   0.702E-03    0.127E-02
DAV:  52    -0.691496152314E+03   -0.99143E-04   -0.12397E-05 15048   0.146E-02    0.602E-02
DAV:  53    -0.691496088667E+03    0.63648E-04   -0.67089E-06 16616   0.425E-03    0.509E-02
DAV:  54    -0.691495990488E+03    0.98179E-04   -0.69331E-06 13704   0.132E-02    0.672E-03
DAV:  55    -0.691496063761E+03   -0.73273E-04   -0.10759E-05 15776   0.122E-02    0.347E-02
DAV:  56    -0.691496067464E+03   -0.37036E-05   -0.52085E-06 16156   0.357E-03    0.263E-02
DAV:  57    -0.691496114157E+03   -0.46693E-04   -0.12838E-06 12968   0.186E-03    0.299E-02
DAV:  58    -0.691496117181E+03   -0.30238E-05   -0.76888E-07 12368   0.341E-03    0.186E-02
DAV:  59    -0.691496114381E+03    0.27998E-05   -0.66920E-07 12216   0.224E-03    0.114E-02
DAV:  60    -0.691496149619E+03   -0.35237E-04   -0.40545E-07 12004   0.837E-04    0.121E-02
DAV:  61    -0.691496178966E+03   -0.29347E-04   -0.19608E-07 12160   0.133E-03    0.834E-03
DAV:  62    -0.691496226527E+03   -0.47561E-04   -0.29926E-07 11748   0.116E-03    0.532E-03
DAV:  63    -0.691496253256E+03   -0.26730E-04   -0.17694E-07 11932   0.159E-03    0.102E-02
DAV:  64    -0.691496276023E+03   -0.22767E-04   -0.12901E-07 12056   0.133E-03    0.583E-03
DAV:  65    -0.691496296410E+03   -0.20387E-04   -0.17868E-07 11652   0.117E-03    0.226E-03
DAV:  66    -0.691496307533E+03   -0.11123E-04   -0.11678E-07 11612   0.595E-04    0.130E-03
DAV:  67    -0.691496319786E+03   -0.12253E-04   -0.73405E-08 11848   0.560E-04    0.171E-03
DAV:  68    -0.691496325667E+03   -0.58808E-05   -0.64177E-08 11840   0.391E-04    0.121E-03
DAV:  69    -0.691496327778E+03   -0.21106E-05   -0.24582E-08 11168   0.139E-04    0.123E-03
DAV:  70    -0.691496328182E+03   -0.40419E-06   -0.82816E-09 11380   0.809E-05
   1 F= -.72414859E+03 E0= -.72409865E+03  d E =-.724149E+03  mag=    11.5333
       N       E                     dE             d eps       ncg     rms          rms(c)
DAV:   1    -0.691478226284E+03    0.18101E-01   -0.16561E+00 23016   0.316E+00    0.293E-01
DAV:   2    -0.691497437313E+03   -0.19211E-01   -0.21157E-01 18712   0.580E-01    0.206E-01
DAV:   3    -0.691498263497E+03   -0.82618E-03   -0.55556E-03 18544   0.188E-01    0.339E-01
DAV:   4    -0.691498728339E+03   -0.46484E-03   -0.37120E-03 18608   0.191E-01    0.374E-01
DAV:   5    -0.691497381654E+03    0.13467E-02   -0.19196E-03 18584   0.145E-01    0.196E-01
DAV:   6    -0.691497267065E+03    0.11459E-03   -0.18447E-03 18260   0.106E-01    0.144E-01
DAV:   7    -0.691497198410E+03    0.68656E-04   -0.10225E-03 18788   0.693E-02    0.998E-02
DAV:   8    -0.691497090592E+03    0.10782E-03   -0.24530E-04 18592   0.422E-02    0.432E-02
DAV:   9    -0.691497091713E+03   -0.11213E-05   -0.72908E-05 19072   0.194E-02    0.366E-02
DAV:  10    -0.691497081480E+03    0.10234E-04   -0.35774E-05 18420   0.117E-02    0.158E-02
DAV:  11    -0.691497077728E+03    0.37516E-05   -0.73644E-06 16360   0.626E-03    0.941E-03
DAV:  12    -0.691497074124E+03    0.36040E-05   -0.54040E-06 15136   0.491E-03    0.830E-03
DAV:  13    -0.691497068959E+03    0.51653E-05   -0.22044E-06 11936   0.344E-03    0.370E-03
DAV:  14    -0.691497063796E+03    0.51626E-05   -0.51374E-07 11600   0.175E-03    0.296E-03
DAV:  15    -0.691497061839E+03    0.19574E-05   -0.17238E-07 11488   0.108E-03    0.288E-03
DAV:  16    -0.691497061291E+03    0.54715E-06   -0.10136E-07 11496   0.815E-04
   2 F= -.72415053E+03 E0= -.72410076E+03  d E =-.194101E-02  mag=    11.5412
       N       E                     dE             d eps       ncg     rms          rms(c)
DAV:   1    -0.691496718894E+03    0.34295E-03   -0.57788E-02 23416   0.590E-01    0.546E-02
DAV:   2    -0.691497395147E+03   -0.67625E-03   -0.73945E-03 18516   0.108E-01    0.411E-02
DAV:   3    -0.691497651133E+03   -0.25599E-03   -0.23871E-04 18400   0.581E-02    0.148E-01
DAV:   4    -0.691497393744E+03    0.25739E-03   -0.11789E-04 18528   0.456E-02    0.395E-02
DAV:   5    -0.691497400600E+03   -0.68566E-05   -0.57636E-05 18076   0.203E-02    0.315E-02
DAV:   6    -0.691497412131E+03   -0.11530E-04   -0.62770E-05 18128   0.186E-02    0.270E-02
DAV:   7    -0.691497418707E+03   -0.65756E-05   -0.33440E-05 18348   0.134E-02    0.184E-02
DAV:   8    -0.691497420182E+03   -0.14752E-05   -0.72352E-06 15920   0.775E-03    0.858E-03
DAV:   9    -0.691497425061E+03   -0.48792E-05   -0.24313E-06 11292   0.389E-03    0.656E-03
DAV:  10    -0.691497426586E+03   -0.15250E-05   -0.12664E-06 11680   0.234E-03    0.274E-03
DAV:  11    -0.691497429563E+03   -0.29772E-05   -0.28452E-07 11448   0.130E-03    0.226E-03
DAV:  12    -0.691497432180E+03   -0.26166E-05   -0.19824E-07 11232   0.937E-04    0.212E-03
DAV:  13    -0.691497435529E+03   -0.33497E-05   -0.82555E-08 11260   0.650E-04    0.146E-03
DAV:  14    -0.691497439675E+03   -0.41453E-05   -0.30815E-08 11224   0.376E-04    0.135E-03
DAV:  15    -0.691497443067E+03   -0.33921E-05   -0.13116E-08 11352   0.228E-04    0.133E-03
DAV:  16    -0.691497446099E+03   -0.30317E-05   -0.89104E-09 11400   0.178E-04    0.132E-03
DAV:  17    -0.691497450911E+03   -0.48119E-05   -0.14350E-08 11244   0.188E-04    0.130E-03
DAV:  18    -0.691497459057E+03   -0.81460E-05   -0.33309E-08 11520   0.209E-04    0.127E-03
DAV:  19    -0.691497464484E+03   -0.54275E-05   -0.25822E-08 11476   0.211E-04    0.128E-03
DAV:  20    -0.691497469786E+03   -0.53018E-05   -0.27916E-08 11440   0.204E-04    0.126E-03
DAV:  21    -0.691497474108E+03   -0.43220E-05   -0.31001E-08 11432   0.182E-04    0.122E-03
DAV:  22    -0.691497475720E+03   -0.16121E-05   -0.11415E-08 11560   0.132E-04    0.122E-03
DAV:  23    -0.691497476819E+03   -0.10990E-05   -0.61286E-09 11400   0.928E-05    0.122E-03
DAV:  24    -0.691497477513E+03   -0.69384E-06   -0.26280E-09 11344   0.632E-05
   3 F= -.72415072E+03 E0= -.72410092E+03  d E =-.213173E-02  mag=    11.5474
       N       E                     dE             d eps       ncg     rms          rms(c)
DAV:   1    -0.691487781912E+03    0.96949E-02   -0.79428E-01 21212   0.202E+00    0.189E-01
DAV:   2    -0.691496969094E+03   -0.91872E-02   -0.97002E-02 18820   0.378E-01    0.232E-01
DAV:   3    -0.691500987033E+03   -0.40179E-02   -0.17232E-02 18512   0.238E-01    0.634E-01
DAV:   4    -0.691496320706E+03    0.46663E-02   -0.10884E-02 18988   0.173E-01    0.137E-01
DAV:   5    -0.691496192488E+03    0.12822E-03   -0.50981E-04 18816   0.485E-02    0.712E-02
DAV:   6    -0.691496267275E+03   -0.74788E-04   -0.42770E-04 18492   0.518E-02    0.980E-02
DAV:   7    -0.691496217636E+03    0.49639E-04   -0.46856E-04 18680   0.420E-02    0.708E-02
DAV:   8    -0.691496172099E+03    0.45537E-04   -0.11086E-04 18728   0.242E-02    0.358E-02
DAV:   9    -0.691496152583E+03    0.19516E-04   -0.25492E-05 18564   0.127E-02    0.200E-02
DAV:  10    -0.691496146798E+03    0.57849E-05   -0.15464E-05 16732   0.759E-03    0.119E-02
DAV:  11    -0.691496140764E+03    0.60338E-05   -0.41277E-06 12680   0.483E-03    0.649E-03
DAV:  12    -0.691496136880E+03    0.38843E-05   -0.11070E-06 11496   0.273E-03    0.455E-03
DAV:  13    -0.691496130348E+03    0.65314E-05   -0.61381E-07 11192   0.179E-03    0.370E-03
DAV:  14    -0.691496127522E+03    0.28263E-05   -0.43453E-07 11440   0.148E-03    0.369E-03
DAV:  15    -0.691496123395E+03    0.41269E-05   -0.20641E-07 11336   0.102E-03    0.280E-03
DAV:  16    -0.691496121051E+03    0.23444E-05   -0.71006E-08 11560   0.643E-04    0.264E-03
DAV:  17    -0.691496118582E+03    0.24692E-05   -0.12470E-07 11652   0.831E-04    0.221E-03
DAV:  18    -0.691496115879E+03    0.27029E-05   -0.30150E-07 11636   0.906E-04    0.210E-03
DAV:  19    -0.691496117659E+03   -0.17805E-05   -0.18486E-07 11932   0.795E-04    0.216E-03
DAV:  20    -0.691496123556E+03   -0.58967E-05   -0.19182E-07 11820   0.706E-04    0.156E-03
DAV:  21    -0.691496133564E+03   -0.10008E-04   -0.96578E-08 11660   0.499E-04    0.145E-03
DAV:  22    -0.691496141561E+03   -0.79970E-05   -0.46100E-08 11440   0.357E-04    0.133E-03
DAV:  23    -0.691496151030E+03   -0.94690E-05   -0.26385E-08 11464   0.257E-04    0.130E-03
DAV:  24    -0.691496162107E+03   -0.11078E-04   -0.22878E-08 11400   0.210E-04    0.129E-03
DAV:  25    -0.691496175616E+03   -0.13509E-04   -0.18956E-08 11584   0.180E-04    0.125E-03
DAV:  26    -0.691496192417E+03   -0.16800E-04   -0.25451E-08 11600   0.155E-04    0.125E-03
DAV:  27    -0.691496210180E+03   -0.17764E-04   -0.29968E-08 11824   0.143E-04    0.125E-03
DAV:  28    -0.691496223394E+03   -0.13214E-04   -0.26627E-08 11832   0.160E-04    0.123E-03
DAV:  29    -0.691496232516E+03   -0.91221E-05   -0.24551E-08 11776   0.147E-04    0.122E-03
DAV:  30    -0.691496235444E+03   -0.29278E-05   -0.93293E-09 11616   0.898E-05    0.122E-03
DAV:  31    -0.691496237170E+03   -0.17255E-05   -0.41874E-09 11616   0.658E-05    0.121E-03
DAV:  32    -0.691496238290E+03   -0.11199E-05   -0.20971E-09 11480   0.503E-05    0.121E-03
DAV:  33    -0.691496239086E+03   -0.79651E-06   -0.11936E-09 11448   0.344E-05
   4 F= -.72415239E+03 E0= -.72410266E+03  d E =-.166902E-02  mag=    11.5709
