 vasp.6.4.3 19Mar24 (build Nov 27 2025 15:18:09) complex                         
 executed on              LinuxNV date 2026.06.08  11:05:27
 running    1 mpi-ranks, with    4 threads/rank, on    1 nodes
 distrk:  each k-point on    1 cores,    1 groups
 distr:  one band on NCORE=   1 cores,    1 groups
 OpenACC runtime initialized ...    1 GPUs detected


--------------------------------------------------------------------------------------------------------


 INCAR:
   SYSTEM = pddmc
   ENCUT = 520
   PREC = Accurate
   LASPH = .TRUE.
   ADDGRID = .TRUE.
   ISPIN = 2
   IVDW = 12
   EDIFF = 1e-06
   NELM = 500
   NELMIN = 5
   ALGO = Normal
   NCORE = 1
   LREAL = Auto
   LWAVE = .FALSE.
   LCHARG = .FALSE.
   LORBIT = 11
   ISYM = 0
   IBRION = 2
   NSW = 300
   ISIF = 2
   ISMEAR = 0
   SIGMA = 0.05
   EDIFFG = -0.03
   LDIPOL = .TRUE.
   IDIPOL = 3
   KSPACING = 0.25

 POTCAR:    PAW_PBE O 08Apr2002                   
 POTCAR:    PAW_PBE Pd_pv 28Jan2005               
 -----------------------------------------------------------------------------
|                                                                             |
|           W    W    AA    RRRRR   N    N  II  N    N   GGGG   !!!           |
|           W    W   A  A   R    R  NN   N  II  NN   N  G    G  !!!           |
|           W    W  A    A  R    R  N N  N  II  N N  N  G       !!!           |
|           W WW W  AAAAAA  RRRRR   N  N N  II  N  N N  G  GGG   !            |
|           WW  WW  A    A  R   R   N   NN  II  N   NN  G    G                |
|           W    W  A    A  R    R  N    N  II  N    N   GGGG   !!!           |
|                                                                             |
|     You use a magnetic or noncollinear calculation, but did not specify     |
|     the initial magnetic moment with the MAGMOM tag. Note that a            |
|     default of 1 will be used for all atoms. This ferromagnetic setup       |
|     may break the symmetry of the crystal, in particular it may rule        |
|     out finding an antiferromagnetic solution. Thence, we recommend         |
|     setting the initial magnetic moment manually or verifying carefully     |
|     that this magnetic setup is desired.                                    |
|                                                                             |
 -----------------------------------------------------------------------------

 POTCAR:    PAW_PBE O 08Apr2002                   
   SHA256 =  818f92134a0a090dccd8ba1447fa70422a3b330e708bb4f08108d8ae51209ddf O/POTCAR              
   COPYR  = (c) Copyright 08Apr2002 Georg Kresse                                                    
   COPYR  = This file is part of the software VASP. Any use, copying, and all other rights are regul
   COPYR  = If you do not have a valid VASP license, you may not use, copy or distribute this file. 
   VRHFIN =O: s2p4                                                                                  
   LEXCH  = PE                                                                                      
   EATOM  =   432.3788 eV,   31.7789 Ry                                                             
                                                                                                    
   TITEL  = PAW_PBE O 08Apr2002                                                                     
   LULTRA =        F    use ultrasoft PP ?                                                          
   IUNSCR =        1    unscreen: 0-lin 1-nonlin 2-no                                               
   RPACOR =    1.200    partial core radius                                                         
   POMASS =   16.000; ZVAL   =    6.000    mass and valenz                                          
   RCORE  =    1.520    outmost cutoff radius                                                       
   RWIGS  =    1.550; RWIGS  =    0.820    wigner-seitz radius (au A)                               
   ENMAX  =  400.000; ENMIN  =  300.000 eV                                                          
   ICORE  =        2    local potential                                                             
   LCOR   =        T    correct aug charges                                                         
   LPAW   =        T    paw PP                                                                      
   EAUG   =  605.392                                                                                
   DEXC   =    0.000                                                                                
   RMAX   =    1.553    core radius for proj-oper                                                   
   RAUG   =    1.300    factor for augmentation sphere                                              
   RDEP   =    1.550    radius for radial grids                                                     
   RDEPT  =    1.329    core radius for aug-charge                                                  
                                                                                                    
   Atomic configuration                                                                             
    4 entries                                                                                       
     n  l   j            E        occ.                                                              
     1  0  0.50      -514.6923   2.0000                                                             
     2  0  0.50       -23.9615   2.0000                                                             
     2  1  0.50        -9.0305   4.0000                                                             
     3  2  1.50        -9.5241   0.0000                                                             
   Description                                                                                      
     l       E           TYP  RCUT    TYP  RCUT                                                     
     0    -23.9615318     23  1.200                                                                 
     0     -9.5240782     23  1.200                                                                 
     1     -9.0304911     23  1.520                                                                 
     1      8.1634956     23  1.520                                                                 
     2     -9.5240782      7  1.500                                                                 
  local pseudopotential read in
  partial core-charges read in
  partial kinetic energy density read in
  kinetic energy density of atom read in
  atomic valenz-charges read in
  non local Contribution for L=            0  read in
    real space projection operators read in
  non local Contribution for L=            0  read in
    real space projection operators read in
  non local Contribution for L=            1  read in
    real space projection operators read in
  non local Contribution for L=            1  read in
    real space projection operators read in
    PAW grid and wavefunctions read in
 
   number of l-projection  operators is LMAX  =            4
   number of lm-projection operators is LMMAX =            8
 
 POTCAR:    PAW_PBE Pd_pv 28Jan2005               
   SHA256 =  3ce661545bbde58da9a95410dea32907db2844916708bcd35bbe03ee66324d7f Pd_pv/POTCAR          
   COPYR  = (c) Copyright 28Jan2005 Georg Kresse                                                    
   COPYR  = This file is part of the software VASP. Any use, copying, and all other rights are regul
   COPYR  = If you do not have a valid VASP license, you may not use, copy or distribute this file. 
   VRHFIN =Pd: 4p5s4d                                                                               
   LEXCH  = PE                                                                                      
   EATOM  =  2621.5550 eV,  192.6789 Ry                                                             
                                                                                                    
   TITEL  = PAW_PBE Pd_pv 28Jan2005                                                                 
   LULTRA =        F    use ultrasoft PP ?                                                          
   IUNSCR =        1    unscreen: 0-lin 1-nonlin 2-no                                               
   RPACOR =    2.250    partial core radius                                                         
   POMASS =  106.420; ZVAL   =   16.000    mass and valenz                                          
   RCORE  =    2.400    outmost cutoff radius                                                       
   RWIGS  =    2.300; RWIGS  =    1.217    wigner-seitz radius (au A)                               
   ENMAX  =  250.925; ENMIN  =  188.194 eV                                                          
   ICORE  =        3    local potential                                                             
   LCOR   =        T    correct aug charges                                                         
   LPAW   =        T    paw PP                                                                      
   EAUG   =  473.067                                                                                
   DEXC   =    0.000                                                                                
   RMAX   =    2.449    core radius for proj-oper                                                   
   RAUG   =    1.300    factor for augmentation sphere                                              
   RDEP   =    2.405    radius for radial grids                                                     
   RDEPT  =    1.966    core radius for aug-charge                                                  
                                                                                                    
   Atomic configuration                                                                             
   11 entries                                                                                       
     n  l   j            E        occ.                                                              
     1  0  0.50    -24164.6632   2.0000                                                             
     2  0  0.50     -3530.9218   2.0000                                                             
     2  1  1.50     -3165.6822   6.0000                                                             
     3  0  0.50      -639.4578   2.0000                                                             
     3  1  1.50      -519.4532   6.0000                                                             
     3  2  2.50      -328.9758  10.0000                                                             
     4  0  0.50       -88.7014   2.0000                                                             
     4  1  1.50       -54.4541   6.0000                                                             
     4  2  2.50        -6.6878   9.0000                                                             
     5  0  0.50        -4.3543   1.0000                                                             
     4  3  2.50        -1.3606   0.0000                                                             
   Description                                                                                      
     l       E           TYP  RCUT    TYP  RCUT                                                     
     1    -54.4540524     23  2.100                                                                 
     1      4.0817478     23  2.100                                                                 
     2     -6.6878326     23  2.400                                                                 
     2     -4.0817478     23  2.400                                                                 
     0     -4.3542962     23  2.400                                                                 
     0     13.6058260     23  2.400                                                                 
     3     -5.4423304     23  2.400                                                                 
  local pseudopotential read in
  partial core-charges read in
  partial kinetic energy density read in
  atomic valenz-charges read in
  non local Contribution for L=            1  read in
    real space projection operators read in
  non local Contribution for L=            1  read in
    real space projection operators read in
  non local Contribution for L=            2  read in
    real space projection operators read in
  non local Contribution for L=            2  read in
    real space projection operators read in
  non local Contribution for L=            0  read in
    real space projection operators read in
  non local Contribution for L=            0  read in
    real space projection operators read in
    PAW grid and wavefunctions read in
 
   number of l-projection  operators is LMAX  =            6
   number of lm-projection operators is LMMAX =           18
 
 Optimization of the real space projectors (new method)

 maximal supplied QI-value         = 24.76
 optimisation between [QCUT,QGAM] = [ 11.64, 23.27] = [ 37.91,151.63] Ry 
 Optimized for a Real-space Cutoff    1.14 Angstroem

   l    n(q)    QCUT    max X(q) W(low)/X(q) W(high)/X(q)  e(spline) 
   0      8    11.635    20.381    0.10E-03    0.33E-03    0.24E-06
   0      8    11.635    15.268    0.11E-03    0.35E-03    0.26E-06
   1      7    11.635     5.964    0.24E-03    0.31E-03    0.30E-06
   1      7    11.635     5.382    0.22E-03    0.25E-03    0.26E-06
 Optimization of the real space projectors (new method)

 maximal supplied QI-value         = 15.68
 optimisation between [QCUT,QGAM] = [ 11.61, 23.21] = [ 37.72,150.90] Ry 
 Optimized for a Real-space Cutoff    1.40 Angstroem

   l    n(q)    QCUT    max X(q) W(low)/X(q) W(high)/X(q)  e(spline) 
   1      9    11.607     3.357    0.46E-04    0.85E-04    0.15E-06
   1      9    11.607     4.938    0.68E-04    0.21E-03    0.32E-06
   2      9    11.607    23.508    0.23E-03    0.17E-03    0.29E-06
   2      9    11.607    23.349    0.22E-03    0.16E-03    0.28E-06
   0     10    11.607    49.920    0.59E-04    0.74E-04    0.17E-06
   0     10    11.607    23.997    0.53E-04    0.66E-04    0.15E-06
  PAW_PBE O 08Apr2002                   :
 energy of atom  1       EATOM= -432.3788
 kinetic energy error for atom=    0.0208 (will be added to EATOM!!)
  PAW_PBE Pd_pv 28Jan2005               :
 energy of atom  2       EATOM=-2621.5550
 kinetic energy error for atom=    0.0088 (will be added to EATOM!!)
 
 
 POSCAR: O  Pd
  positions in direct lattice
  velocities in cartesian coordinates
 IVDW         = 12
 VDW_S6       =    1.0000
 VDW_S8       =    0.7875
 VDW_A1       =    0.4289
 VDW_A2       =    4.4407
 VDW_RADIUS   =   50.2022 A
 VDW_CNRADIUS =   21.1671 A


 exchange-correlation table for PE
   RHO(1)=    0.500       N(1)  =     2000
   RHO(2)=  100.500       N(2)  =     4000
 


--------------------------------------------------------------------------------------------------------


 ion  position               nearest neighbor table
   1  0.250  0.619  0.395-  95 1.97  94 2.00 111 2.00
   2  0.500  0.119  0.395- 120 1.97 106 2.00 119 2.00
   3  0.500  0.381  0.395- 120 1.97  94 2.00  65 2.00
   4  0.500  0.125  0.298- 123 2.02  91 2.04 122 2.04 120 2.09
   5  0.500  0.375  0.298- 123 2.02  97 2.04  93 2.04 120 2.09
   6  0.500  0.125  0.199- 125 2.04 102 2.04 126 2.05 123 2.05
   7  0.500  0.375  0.199-  92 2.04 101 2.04 126 2.05 123 2.05
   8  0.500  0.125  0.099- 110 2.04  96 2.04 109 2.04 126 2.05
   9  0.500  0.375  0.099- 103 2.04 116 2.04 109 2.04 126 2.05
  10  0.750  0.881  0.395-  68 1.97 119 2.00  85 2.00
  11  0.250  0.881  0.395-  95 1.97 106 2.00  73 2.00
  12  0.250  0.625  0.298-  98 2.02  97 2.04 121 2.04  95 2.09
  13  0.250  0.875  0.298-  98 2.02  91 2.04  82 2.04  95 2.09
  14  0.250  0.625  0.199- 101 2.04 115 2.04 108 2.05  98 2.05
  15  0.250  0.875  0.199- 102 2.04  77 2.04 108 2.05  98 2.05
  16  0.250  0.625  0.099- 103 2.04 127 2.04 104 2.04 108 2.05
  17  0.250  0.875  0.099-  69 2.04  96 2.04 104 2.04 108 2.05
  18  0.250  0.119  0.395- 107 1.97 106 2.00  73 2.00
  19  0.500  0.875  0.099-  96 2.04 110 2.04 117 2.04 114 2.05
  20  0.500  0.625  0.099- 116 2.04 103 2.04 117 2.04 114 2.05
  21  0.500  0.875  0.199- 125 2.04 102 2.04 114 2.05 112 2.05
  22  0.500  0.625  0.199- 101 2.04  92 2.04 114 2.05 112 2.05
  23  0.750  0.625  0.298-  78 2.02  93 2.04  72 2.04  68 2.09
  24  0.750  0.875  0.298-  78 2.02 122 2.04  80 2.04  68 2.09
  25  0.750  0.625  0.199-  92 2.04  87 2.04  76 2.05  78 2.05
  26  0.750  0.875  0.199- 125 2.04  75 2.04  76 2.05  78 2.05
  27  0.750  0.625  0.099-  89 2.04 116 2.04  88 2.04  76 2.05
  28  0.750  0.875  0.099- 110 2.04  71 2.04  88 2.04  76 2.05
  29  0.750  0.119  0.395-  83 1.97 119 2.00  85 2.00
  30  0.750  0.381  0.395-  83 1.97  65 2.00  66 2.00
  31  0.250  0.381  0.395- 107 1.97  94 2.00 111 2.00
  32  0.750  0.125  0.298-  79 2.02 122 2.04  80 2.04  83 2.09
  33  0.750  0.125  0.199- 125 2.04  75 2.04  74 2.05  79 2.05
  34  0.750  0.375  0.199-  92 2.04  87 2.04  74 2.05  79 2.05
  35  0.750  0.125  0.099-  71 2.04 110 2.04  70 2.04  74 2.05
  36  0.750  0.375  0.099- 116 2.04  89 2.04  70 2.04  74 2.05
  37  0.500  0.619  0.395-  84 1.97  94 2.00  65 2.00
  38  0.500  0.881  0.395-  84 1.97 106 2.00 119 2.00
  39  0.500  0.625  0.298- 112 2.02  97 2.04  93 2.04  84 2.09
  40  0.500  0.875  0.298- 112 2.02  91 2.04 122 2.04  84 2.09
  41  0.750  0.375  0.298-  79 2.02  93 2.04  72 2.04  83 2.09
  42  0.250  0.125  0.298- 105 2.02  91 2.04  82 2.04 107 2.09
  43  0.750  0.619  0.395-  68 1.97  65 2.00  66 2.00
  44  0.000  0.881  0.395- 124 1.97  73 2.00  85 2.00
  45  0.000  0.625  0.099- 127 2.04  89 2.04  67 2.04 113 2.05
  46  0.250  0.375  0.298- 105 2.02  97 2.04 121 2.04 107 2.09
  47  1.000  0.119  0.395-  90 1.97  73 2.00  85 2.00
  48  1.000  0.875  0.199-  75 2.04  77 2.04 113 2.05 118 2.05
  49  0.000  0.381  0.395-  90 1.97 111 2.00  66 2.00
  50  0.000  0.625  0.199- 115 2.04  87 2.04 113 2.05 118 2.05
  51  0.000  0.875  0.298- 118 2.02  82 2.04  80 2.04 124 2.09
  52  0.000  0.125  0.298-  86 2.02  82 2.04  80 2.04  90 2.09
  53  0.000  0.625  0.298- 118 2.02 121 2.04  72 2.04 124 2.09
  54  0.000  0.375  0.298-  86 2.02 121 2.04  72 2.04  90 2.09
  55  0.000  0.619  0.395- 124 1.97 111 2.00  66 2.00
  56  1.000  0.125  0.199-  75 2.04  77 2.04  81 2.05  86 2.05
  57  0.000  0.375  0.199-  87 2.04 115 2.04  81 2.05  86 2.05
  58  0.250  0.375  0.099- 127 2.04 103 2.04 100 2.04  99 2.05
  59  0.000  0.875  0.099-  71 2.04  69 2.04  67 2.04 113 2.05
  60  0.250  0.375  0.199- 101 2.04 115 2.04  99 2.05 105 2.05
  61  0.250  0.125  0.099-  96 2.04  69 2.04 100 2.04  99 2.05
  62  0.250  0.125  0.199- 102 2.04  77 2.04  99 2.05 105 2.05
  63  0.000  0.375  0.099-  89 2.04 127 2.04 128 2.04  81 2.05
  64  0.000  0.125  0.099-  69 2.04  71 2.04 128 2.04  81 2.05
  65  0.625  0.500  0.390-  43 2.00  30 2.00  37 2.00   3 2.00  93 2.85
  66  0.875  0.500  0.390-  55 2.00  49 2.00  43 2.00  30 2.00  72 2.85
  67  0.000  0.750  0.049-  45 2.04  59 2.04
  68  0.750  0.750  0.350-  10 1.97  43 1.97  24 2.09  23 2.09
  69  0.125  0.000  0.099-  17 2.04  64 2.04  61 2.04  59 2.04
  70  0.750  0.250  0.049-  35 2.04  36 2.04
  71  0.875  0.000  0.099-  35 2.04  59 2.04  28 2.04  64 2.04
  72  0.875  0.500  0.297-  53 2.04  54 2.04  23 2.04  41 2.04  66 2.85
  73  0.125  1.000  0.390-  44 2.00  47 2.00  11 2.00  18 2.00  82 2.85
  74  0.750  0.250  0.149-  33 2.05  34 2.05  35 2.05  36 2.05
  75  0.875  0.000  0.199-  56 2.04  48 2.04  33 2.04  26 2.04
  76  0.750  0.750  0.149-  26 2.05  25 2.05  28 2.05  27 2.05
  77  0.125  0.000  0.199-  62 2.04  15 2.04  56 2.04  48 2.04
  78  0.750  0.750  0.249-  23 2.02  24 2.02  25 2.05  26 2.05
  79  0.750  0.250  0.249-  41 2.02  32 2.02  34 2.05  33 2.05
  80  0.875  1.000  0.297-  51 2.04  52 2.04  24 2.04  32 2.04  85 2.85
  81  1.000  0.250  0.149-  56 2.05  57 2.05  64 2.05  63 2.05
  82  0.125  0.000  0.297-  52 2.04  51 2.04  42 2.04  13 2.04  73 2.85
  83  0.750  0.250  0.350-  29 1.97  30 1.97  32 2.09  41 2.09
  84  0.500  0.750  0.350-  37 1.97  38 1.97  39 2.09  40 2.09
  85  0.875  0.000  0.390-  47 2.00  44 2.00  29 2.00  10 2.00  80 2.85
  86  0.000  0.250  0.249-  54 2.02  52 2.02  57 2.05  56 2.05
  87  0.875  0.500  0.199-  57 2.04  50 2.04  34 2.04  25 2.04
  88  0.750  0.750  0.049-  27 2.04  28 2.04
  89  0.875  0.500  0.099-  27 2.04  63 2.04  45 2.04  36 2.04
  90  1.000  0.250  0.350-  49 1.97  47 1.97  54 2.09  52 2.09
  91  0.375  1.000  0.297-  42 2.04  13 2.04  40 2.04   4 2.04 106 2.85
  92  0.625  0.500  0.199-  34 2.04  25 2.04   7 2.04  22 2.04
  93  0.625  0.500  0.297-  41 2.04  23 2.04  39 2.04   5 2.04  65 2.85
  94  0.375  0.500  0.390-  37 2.00   3 2.00   1 2.00  31 2.00  97 2.85
  95  0.250  0.750  0.350-   1 1.97  11 1.97  12 2.09  13 2.09
  96  0.375  0.000  0.099-  19 2.04  61 2.04   8 2.04  17 2.04
  97  0.375  0.500  0.297-  12 2.04  39 2.04   5 2.04  46 2.04  94 2.85
  98  0.250  0.750  0.249-  12 2.02  13 2.02  14 2.05  15 2.05
  99  0.250  0.250  0.149-  62 2.05  60 2.05  58 2.05  61 2.05
 100  0.250  0.250  0.049-  61 2.04  58 2.04
 101  0.375  0.500  0.199-  60 2.04  14 2.04   7 2.04  22 2.04
 102  0.375  0.000  0.199-  62 2.04  15 2.04   6 2.04  21 2.04
 103  0.375  0.500  0.099-   9 2.04  16 2.04  20 2.04  58 2.04
 104  0.250  0.750  0.049-  16 2.04  17 2.04
 105  0.250  0.250  0.249-  46 2.02  42 2.02  60 2.05  62 2.05
 106  0.375  0.000  0.390-   2 2.00  38 2.00  18 2.00  11 2.00  91 2.85
 107  0.250  0.250  0.350-  31 1.97  18 1.97  46 2.09  42 2.09
 108  0.250  0.750  0.149-  15 2.05  14 2.05  17 2.05  16 2.05
 109  0.500  0.250  0.049-   8 2.04   9 2.04
 110  0.625  0.000  0.099-   8 2.04  28 2.04  19 2.04  35 2.04
 111  0.125  0.500  0.390-  49 2.00  55 2.00  31 2.00   1 2.00 121 2.85
 112  0.500  0.750  0.249-  39 2.02  40 2.02  21 2.05  22 2.05
 113  1.000  0.750  0.149-  48 2.05  50 2.05  59 2.05  45 2.05
 114  0.500  0.750  0.149-  21 2.05  22 2.05  19 2.05  20 2.05
 115  0.125  0.500  0.199-  50 2.04  57 2.04  14 2.04  60 2.04
 116  0.625  0.500  0.099-  20 2.04  36 2.04  27 2.04   9 2.04
 117  0.500  0.750  0.049-  20 2.04  19 2.04
 118  0.000  0.750  0.249-  53 2.02  51 2.02  50 2.05  48 2.05
 119  0.625  0.000  0.390-  29 2.00   2 2.00  10 2.00  38 2.00 122 2.85
 120  0.500  0.250  0.350-   3 1.97   2 1.97   5 2.09   4 2.09
 121  0.125  0.500  0.297-  54 2.04  53 2.04  46 2.04  12 2.04 111 2.85
 122  0.625  1.000  0.297-  24 2.04  32 2.04  40 2.04   4 2.04 119 2.85
 123  0.500  0.250  0.249-   5 2.02   4 2.02   7 2.05   6 2.05
 124  1.000  0.750  0.350-  55 1.97  44 1.97  53 2.09  51 2.09
 125  0.625  1.000  0.199-   6 2.04  21 2.04  33 2.04  26 2.04
 126  0.500  0.250  0.149-   6 2.05   7 2.05   8 2.05   9 2.05
 127  0.125  0.500  0.099-  45 2.04  58 2.04  16 2.04  63 2.04
 128  0.000  0.250  0.049-  64 2.04  63 2.04
 

IMPORTANT INFORMATION: All symmetrisations will be switched off!
NOSYMM: (Re-)initialisation of all symmetry stuff for point group C_1.


----------------------------------------------------------------------------------------

                                     Primitive cell                                     

  volume of cell :    4052.5403

  direct lattice vectors                    reciprocal lattice vectors
    12.214370837  0.000000000  0.000000000     0.081870774 -0.000000000  0.000000000
     0.000000000 10.811692247  0.000000000     0.000000000  0.092492459  0.000000000
     0.000000000  0.000000000 30.687574482    -0.000000000 -0.000000000  0.032586479

  length of vectors
    12.214370837 10.811692247 30.687574482     0.081870774  0.092492459  0.032586479

  position of ions in fractional coordinates (direct lattice)
     0.250016480  0.619284591  0.394883675
     0.499995287  0.119257993  0.394884626
     0.499980042  0.380729006  0.394882283
     0.499998565  0.125291160  0.298467902
     0.499998175  0.374707325  0.298467260
     0.500001497  0.125438381  0.199046452
     0.499999600  0.374560405  0.199047230
     0.500000000  0.125000000  0.098632636
     0.500000000  0.375000000  0.098632636
     0.749994677  0.880733195  0.394883816
     0.250007520  0.880734102  0.394885259
     0.249999709  0.625292874  0.298468499
     0.250000070  0.874712092  0.298468812
     0.250001496  0.625438860  0.199047677
     0.250000660  0.874562377  0.199047260
     0.250000000  0.625000000  0.098632636
     0.250000000  0.875000000  0.098632636
     0.250007675  0.119259152  0.394887753
     0.500000000  0.875000000  0.098632636
     0.500000000  0.625000000  0.098632636
     0.500001132  0.874559342  0.199047101
     0.499999823  0.625439376  0.199047540
     0.750000611  0.625290274  0.298469856
     0.750000015  0.874715489  0.298469454
     0.749998723  0.625440650  0.199047626
     0.749999596  0.874557240  0.199047002
     0.750000000  0.625000000  0.098632636
     0.750000000  0.875000000  0.098632636
     0.749993239  0.119264008  0.394882707
     0.749987974  0.380736332  0.394881049
     0.250012308  0.380719953  0.394885366
     0.749995485  0.125288640  0.298467336
     0.749999672  0.125439072  0.199046497
     0.749999008  0.374560574  0.199047174
     0.750000000  0.125000000  0.098632636
     0.750000000  0.375000000  0.098632636
     0.499985931  0.619260877  0.394884957
     0.499996763  0.880741412  0.394886162
     0.499996846  0.625294196  0.298469319
     0.499998123  0.874712448  0.298468290
     0.749995297  0.374712113  0.298466110
     0.249999748  0.125284388  0.298469082
     0.749985053  0.619247760  0.394883744
     0.000003738  0.880746663  0.394883248
     1.000000000  0.625000000  0.098632636
     0.250000306  0.374703957  0.298470385
     0.999999249  0.119249331  0.394883906
     0.999999076  0.874560078  0.199046906
     0.000019370  0.380752366  0.394882981
     0.000000319  0.625439089  0.199047366
     0.000001529  0.874712975  0.298467216
     0.000001584  0.125286302  0.298468067
     0.000003566  0.625289580  0.298467155
     0.000002580  0.374709357  0.298468592
     0.000015173  0.619253611  0.394881271
     0.999998987  0.125439821  0.199047328
     0.000000560  0.374560815  0.199047763
     0.250000000  0.375000000  0.098632636
     1.000000000  0.875000000  0.098632636
     0.250001362  0.374560857  0.199048285
     0.250000000  0.125000000  0.098632636
     0.250000569  0.125438169  0.199047896
     1.000000000  0.375000000  0.098632636
     1.000000000  0.125000000  0.098632636
     0.625054666  0.500017131  0.390336907
     0.875006866  0.500005989  0.390336804
     1.000000000  0.750000000  0.048879718
     0.750004417  0.750004324  0.350313381
     0.125000000  0.000000000  0.098632636
     0.750000000  0.250000000  0.048879718
     0.875000000  0.000000000  0.098632636
     0.875002643  0.500000264  0.297472413
     0.124961662  0.999992726  0.390336767
     0.750000315  0.249999027  0.148779465
     0.875002334  0.000000457  0.199465643
     0.750000352  0.750000173  0.148779958
     0.125003344  0.000001058  0.199465801
     0.750001300  0.749998965  0.249323720
     0.750000405  0.250002533  0.249323963
     0.875004931  0.999999363  0.297472412
     0.999999970  0.249999586  0.148779410
     0.124993794  0.000000714  0.297472623
     0.750002762  0.249996431  0.350316798
     0.500003547  0.749998342  0.350310291
     0.875023043  0.000006281  0.390335786
     0.000000277  0.249999746  0.249324114
     0.875001411  0.499999594  0.199465243
     0.750000000  0.750000000  0.048879718
     0.875000000  0.500000000  0.098632636
     0.999995383  0.250000609  0.350313767
     0.374993284  0.999999280  0.297472814
     0.625001485  0.499998236  0.199465223
     0.625010282  0.500004161  0.297472878
     0.375026882  0.500000818  0.390337658
     0.249995135  0.749997731  0.350313416
     0.375000000  0.000000000  0.098632636
     0.374998655  0.500000483  0.297472928
     0.249998911  0.749998723  0.249323360
     0.249999940  0.250000053  0.148780080
     0.250000000  0.250000000  0.048879718
     0.374998783  0.499999737  0.199465669
     0.374996933  0.000000364  0.199465773
     0.375000000  0.500000000  0.098632636
     0.250000000  0.750000000  0.048879718
     0.249999313  0.249999881  0.249323568
     0.375004906  0.000001994  0.390337086
     0.249996756  0.250009312  0.350309850
     0.249999885  0.750000281  0.148780125
     0.500000000  0.250000000  0.048879718
     0.625000000  0.000000000  0.098632636
     0.124911679  0.499991312  0.390337750
     0.499999449  0.750000909  0.249323755
     0.999999981  0.750001058  0.148779747
     0.500000141  0.750000226  0.148780570
     0.124998946  0.500001045  0.199465470
     0.625000000  0.500000000  0.098632636
     0.500000000  0.750000000  0.048879718
     0.000000896  0.749999340  0.249324355
     0.625009154  0.000014793  0.390335752
     0.500005143  0.250001810  0.350313226
     0.124988142  0.499996887  0.297472731
     0.625007683  0.999997708  0.297472656
     0.499999977  0.250002675  0.249323675
     0.999997052  0.749998593  0.350316229
     0.624997819  0.999999709  0.199465644
     0.500000141  0.249999571  0.148780378
     0.125000000  0.500000000  0.098632636
     1.000000000  0.250000000  0.048879718

  ion indices of the primitive-cell ions
   primitive index   ion index
                 1           1
                 2           2
                 3           3
                 4           4
                 5           5
                 6           6
                 7           7
                 8           8
                 9           9
                10          10
                11          11
                12          12
                13          13
                14          14
                15          15
                16          16
                17          17
                18          18
                19          19
                20          20
                21          21
                22          22
                23          23
                24          24
                25          25
                26          26
                27          27
                28          28
                29          29
                30          30
                31          31
                32          32
                33          33
                34          34
                35          35
                36          36
                37          37
                38          38
                39          39
                40          40
                41          41
                42          42
                43          43
                44          44
                45          45
                46          46
                47          47
                48          48
                49          49
                50          50
                51          51
                52          52
                53          53
                54          54
                55          55
                56          56
                57          57
                58          58
                59          59
                60          60
                61          61
                62          62
                63          63
                64          64
                65          65
                66          66
                67          67
                68          68
                69          69
                70          70
                71          71
                72          72
                73          73
                74          74
                75          75
                76          76
                77          77
                78          78
                79          79
                80          80
                81          81
                82          82
                83          83
                84          84
                85          85
                86          86
                87          87
                88          88
                89          89
                90          90
                91          91
                92          92
                93          93
                94          94
                95          95
                96          96
                97          97
                98          98
                99          99
               100         100
               101         101
               102         102
               103         103
               104         104
               105         105
               106         106
               107         107
               108         108
               109         109
               110         110
               111         111
               112         112
               113         113
               114         114
               115         115
               116         116
               117         117
               118         118
               119         119
               120         120
               121         121
               122         122
               123         123
               124         124
               125         125
               126         126
               127         127
               128         128

----------------------------------------------------------------------------------------

 
 -----------------------------------------------------------------------------
|                                                                             |
|           W    W    AA    RRRRR   N    N  II  N    N   GGGG   !!!           |
|           W    W   A  A   R    R  NN   N  II  NN   N  G    G  !!!           |
|           W    W  A    A  R    R  N N  N  II  N N  N  G       !!!           |
|           W WW W  AAAAAA  RRRRR   N  N N  II  N  N N  G  GGG   !            |
|           WW  WW  A    A  R   R   N   NN  II  N   NN  G    G                |
|           W    W  A    A  R    R  N    N  II  N    N   GGGG   !!!           |
|                                                                             |
|     The requested file  could not be found or opened for reading            |
|     k-point information. Automatic k-point generation is used as a          |
|     fallback, which may lead to unwanted results.                           |
|                                                                             |
 -----------------------------------------------------------------------------

 

Automatic generation of k-mesh.
 Grid dimensions derived from KSPACING:
 generate k-points for:    3    3    1

 Generating k-lattice:

  Cartesian coordinates                     Fractional coordinates (reciprocal lattice)
     0.027290258 -0.000000000  0.000000000     0.333333333  0.000000000  0.000000000
     0.000000000  0.030830820  0.000000000     0.000000000  0.333333333  0.000000000
    -0.000000000 -0.000000000  0.032586479    -0.000000000  0.000000000  1.000000000

  Length of vectors
     0.027290258  0.030830820  0.032586479

  Shift w.r.t. Gamma in fractional coordinates (k-lattice)
     0.000000000  0.000000000  0.000000000

 
 Subroutine IBZKPT returns following result:
 ===========================================
 
 Found      5 irreducible k-points:
 
 Following reciprocal coordinates:
            Coordinates               Weight
  0.000000  0.000000  0.000000      1.000000
  0.333333  0.000000  0.000000      2.000000
  0.000000  0.333333  0.000000      2.000000
  0.333333  0.333333  0.000000      2.000000
 -0.333333  0.333333  0.000000      2.000000
 
 Following cartesian coordinates:
            Coordinates               Weight
  0.000000  0.000000  0.000000      1.000000
  0.027290  0.000000  0.000000      2.000000
  0.000000  0.030831  0.000000      2.000000
  0.027290  0.030831  0.000000      2.000000
 -0.027290  0.030831  0.000000      2.000000
 


--------------------------------------------------------------------------------------------------------




 Dimension of arrays:
   k-points           NKPTS =      5   k-points in BZ     NKDIM =      5   number of bands    NBANDS=    908
   number of dos      NEDOS =    301   number of ions     NIONS =    128
   non local maximal  LDIM  =      6   non local SUM 2l+1 LMDIM =     18
   total plane-waves  NPLWV = ******
   max r-space proj   IRMAX =   5318   max aug-charges    IRDMAX= 145852
   dimension x,y,z NGX =    96 NGY =   80 NGZ =  240
   dimension x,y,z NGXF=   192 NGYF=  160 NGZF=  480
   support grid    NGXF=   384 NGYF=  320 NGZF=  960
   ions per type =              64  64
   NGX,Y,Z   is equivalent  to a cutoff of  13.07, 12.30, 13.00 a.u.
   NGXF,Y,Z  is equivalent  to a cutoff of  26.13, 24.60, 26.00 a.u.

 SYSTEM =  pddmc                                   
 POSCAR =  O  Pd                                   

 Startparameter for this run:
   NWRITE =      2    write-flag & timer
   PREC   = accura    normal or accurate (medium, high low for compatibility)
   ISTART =      0    job   : 0-new  1-cont  2-samecut
   ICHARG =      2    charge: 1-file 2-atom 10-const
   ISPIN  =      2    spin polarized calculation?
   LNONCOLLINEAR =      F non collinear calculations
   LSORBIT =      F    spin-orbit coupling
   INIWAV =      1    electr: 0-lowe 1-rand  2-diag
   LASPH  =      T    aspherical Exc in radial PAW
 Electronic Relaxation 1
   ENCUT  =  520.0 eV  38.22 Ry    6.18 a.u.  22.71 20.10 57.06*2*pi/ulx,y,z
   ENINI  =  520.0     initial cutoff
   ENAUG  =  605.4 eV  augmentation charge cutoff
   NELM   =    500;   NELMIN=  5; NELMDL= -5     # of ELM steps 
   EDIFF  = 0.1E-05   stopping-criterion for ELM
   LREAL  =      T    real-space projection
   NLSPLINE    = F    spline interpolate recip. space projectors
   LCOMPAT=      F    compatible to vasp.4.4
   GGA_COMPAT  = T    GGA compatible to vasp.4.4-vasp.4.6
   LMAXPAW     = -100 max onsite density
   LMAXMIX     =    2 max onsite mixed and CHGCAR
   VOSKOWN=      0    Vosko Wilk Nusair interpolation
   ROPT   =   -0.00025  -0.00025
 Ionic relaxation
   EDIFFG = -.3E-01   stopping-criterion for IOM
   NSW    =    300    number of steps for IOM
   NBLOCK =      1;   KBLOCK =    300    inner block; outer block 
   IBRION =      2    ionic relax: 0-MD 1-quasi-New 2-CG
   NFREE  =      1    steps in history (QN), initial steepest desc. (CG)
   ISIF   =      2    stress and relaxation
   IWAVPR =     11    prediction:  0-non 1-charg 2-wave 3-comb
   ISYM   =      0    0-nonsym 1-usesym 2-fastsym
   LCORR  =      T    Harris-Foulkes like correction to forces

   POTIM  = 0.5000    time-step for ionic-motion
   TEIN   =    0.0    initial temperature
   TEBEG  =    0.0;   TEEND  =   0.0 temperature during run
   SMASS  =  -3.00    Nose mass-parameter (am)
   estimated Nose-frequenzy (Omega)   =  0.10E-29 period in steps = 0.13E+47 mass=  -0.341E-26a.u.
   SCALEE = 1.0000    scale energy and forces
   NPACO  =    256;   APACO  = 10.0  distance and # of slots for P.C.
   PSTRESS=    0.0 pullay stress

  Mass of Ions in am
   POMASS =  16.00106.42
  Ionic Valenz
   ZVAL   =   6.00 16.00
  Atomic Wigner-Seitz radii
   RWIGS  =  -1.00 -1.00
  virtual crystal weights 
   VCA    =   1.00  1.00
   NELECT =    1408.0000    total number of electrons
   NUPDOWN=      -1.0000    fix difference up-down

 DOS related values:
   EMIN   =  10.00;   EMAX   =-10.00  energy-range for DOS
   EFERMI =   0.00;   METHOD = LEGACY      
   ISMEAR =     0;   SIGMA  =   0.05  broadening in eV -4-tet -1-fermi 0-gaus

 Electronic relaxation 2 (details)
   IALGO  =     38    algorithm
   LDIAG  =      T    sub-space diagonalisation (order eigenvalues)
   LSUBROT=      F    optimize rotation matrix (better conditioning)
   TURBO    =      0    0=normal 1=particle mesh
   IRESTART =      0    0=no restart 2=restart with 2 vectors
   NREBOOT  =      0    no. of reboots
   NMIN     =      0    reboot dimension
   EREF     =   0.00    reference energy to select bands
   IMIX   =      4    mixing-type and parameters
     AMIX     =   0.40;   BMIX     =  1.00
     AMIX_MAG =   1.60;   BMIX_MAG =  1.00
     AMIN     =   0.10
     WC   =   100.;   INIMIX=   1;  MIXPRE=   1;  MAXMIX= -45

 Intra band minimization:
   WEIMIN = 0.0010     energy-eigenvalue tresh-hold
   EBREAK =  0.28E-09  absolut break condition
   DEPER  =   0.30     relativ break condition  

   TIME   =   0.40     timestep for ELM

  volume/ion in A,a.u.               =      31.66       213.66
  Fermi-wavevector in a.u.,A,eV,Ry     =   1.150889  2.174864 18.021521  1.324544
  Thomas-Fermi vector in A             =   2.287550
 
 Write flags
   LWAVE        =      F    write WAVECAR
   LDOWNSAMPLE  =      F    k-point downsampling of WAVECAR
   LCHARG       =      F    write CHGCAR
   LVTOT        =      F    write LOCPOT, total local potential
   LVHAR        =      F    write LOCPOT, Hartree potential only
   WRT_POTENTIAL= false  ! write potential to hdf5 file
   LELF         =      F    write electronic localiz. function (ELF)
   LORBIT       =     11    0 simple, 1 ext, 2 COOP (PROOUT), +10 PAW based schemes


 Dipole corrections
   LMONO      =      F    monopole corrections only (constant potential shift)
   LDIPOL     =      T    correct potential (dipole corrections)
   IDIPOL     =      3    1-x, 2-y, 3-z, 4-all directions 
   EPSILON    =  1.0000000 bulk dielectric constant
   LVACPOTAV  =      F  vacuum potentials using an averaging scheme for the charge density
   VACPOTFLAT =  0.1000000 required flatness to determine vacuum potential
 Exchange correlation treatment:
   GGA     = PE    functional components
   XC_C    = 1    coefficients multiplying the functional components
   LIBXC   =     F    Libxc                    
   VOSKOWN =     0    Vosko Wilk Nusair interpolation
   LHFCALC =     F    Hartree Fock is set to
   LHFONE  =     F    Hartree Fock one center treatment
   AEXX    =    0.0000 exact exchange contribution

 Parameters of functionals:
   PE:
     No parameter
 
 Van der Waals corrections
   IVDW    =    12    specifies the selected vdW correction

 Linear response parameters
   LEPSILON=     F    determine dielectric tensor
   LRPA    =     F    only Hartree local field effects (RPA)
   LNABLA  =     F    use nabla operator in PAW spheres
   LVEL    =     F    velocity operator in full k-point grid
   CSHIFT  =0.1000    complex shift for real part using Kramers Kronig
   OMEGAMAX=  -1.0    maximum frequency
   DEG_THRESHOLD= 0.2000000E-02 threshold for treating states as degnerate
   RTIME   =   -0.100 relaxation time in fs
  (WPLASMAI=    0.000 imaginary part of plasma frequency in eV, 0.658/RTIME)
   DFIELD  = 0.0000000 0.0000000 0.0000000 field for delta impulse in time
 
  Optional k-point grid parameters
   LKPOINTS_OPT  =     F    use optional k-point grid
   KPOINTS_OPT_MODE=     1    mode for optional k-point grid
 
 Orbital magnetization related:
   ORBITALMAG=     F  switch on orbital magnetization
   LCHIMAG   =     F  perturbation theory with respect to B field
   DQ        =  0.001000  dq finite difference perturbation B field
   LLRAUG    =     F  two centre corrections for induced B field
   LBONE     =     F  B-component reconstruction in AE one-centre
   LVGVCALC  =     T  calculate vGv susceptibility
   LVGVAPPL  =     F  apply vGv susceptibility instead of pGv for G=0

 Random number generation:
   RANDOM_GENERATOR = DEFAULT
   PCG_SEED         = not used


--------------------------------------------------------------------------------------------------------


 conjugate gradient relaxation of ions
   using selective dynamics as specified on POSCAR
 charge density and potential will be updated during run
 spin polarized calculation
 Variant of blocked Davidson
 Davidson routine will perform the subspace rotation
 perform sub-space diagonalisation
    after iterative eigenvector-optimisation
 modified Broyden-mixing scheme, WC =      100.0
 initial mixing is a Kerker type mixing with AMIX =  0.4000 and BMIX =      1.0000
 Hartree-type preconditioning will be used
 using additional bands           204
 real space projection scheme for non local part
 use partial core corrections
 calculate Harris-corrections to forces 
   (improved forces if not selfconsistent)
 use gradient corrections 
 use of overlap-Matrix (Vanderbilt PP)
 Gauss-broadening in eV      SIGMA  =   0.05


--------------------------------------------------------------------------------------------------------


  energy-cutoff  :      520.00
  volume of cell :     4052.54
      direct lattice vectors                 reciprocal lattice vectors
    12.214370837  0.000000000  0.000000000     0.081870774 -0.000000000  0.000000000
     0.000000000 10.811692247  0.000000000     0.000000000  0.092492459  0.000000000
     0.000000000  0.000000000 30.687574482    -0.000000000 -0.000000000  0.032586479

  length of vectors
    12.214370837 10.811692247 30.687574482     0.081870774  0.092492459  0.032586479


 
 k-points in units of 2pi/SCALE and weight: read from INCAR                         
   0.00000000  0.00000000  0.00000000       0.111
   0.02729026  0.00000000  0.00000000       0.222
   0.00000000  0.03083082  0.00000000       0.222
   0.02729026  0.03083082  0.00000000       0.222
  -0.02729026  0.03083082  0.00000000       0.222
 
 k-points in reciprocal lattice and weights: read from INCAR                         
   0.00000000  0.00000000  0.00000000       0.111
   0.33333333  0.00000000  0.00000000       0.222
   0.00000000  0.33333333  0.00000000       0.222
   0.33333333  0.33333333  0.00000000       0.222
  -0.33333333  0.33333333  0.00000000       0.222
 
 position of ions in fractional coordinates (direct lattice) 
   0.25001648  0.61928459  0.39488367
   0.49999529  0.11925799  0.39488463
   0.49998004  0.38072901  0.39488228
   0.49999856  0.12529116  0.29846790
   0.49999818  0.37470733  0.29846726
   0.50000150  0.12543838  0.19904645
   0.49999960  0.37456041  0.19904723
   0.50000000  0.12500000  0.09863264
   0.50000000  0.37500000  0.09863264
   0.74999468  0.88073320  0.39488382
   0.25000752  0.88073410  0.39488526
   0.24999971  0.62529287  0.29846850
   0.25000007  0.87471209  0.29846881
   0.25000150  0.62543886  0.19904768
   0.25000066  0.87456238  0.19904726
   0.25000000  0.62500000  0.09863264
   0.25000000  0.87500000  0.09863264
   0.25000768  0.11925915  0.39488775
   0.50000000  0.87500000  0.09863264
   0.50000000  0.62500000  0.09863264
   0.50000113  0.87455934  0.19904710
   0.49999982  0.62543938  0.19904754
   0.75000061  0.62529027  0.29846986
   0.75000002  0.87471549  0.29846945
   0.74999872  0.62544065  0.19904763
   0.74999960  0.87455724  0.19904700
   0.75000000  0.62500000  0.09863264
   0.75000000  0.87500000  0.09863264
   0.74999324  0.11926401  0.39488271
   0.74998797  0.38073633  0.39488105
   0.25001231  0.38071995  0.39488537
   0.74999549  0.12528864  0.29846734
   0.74999967  0.12543907  0.19904650
   0.74999901  0.37456057  0.19904717
   0.75000000  0.12500000  0.09863264
   0.75000000  0.37500000  0.09863264
   0.49998593  0.61926088  0.39488496
   0.49999676  0.88074141  0.39488616
   0.49999685  0.62529420  0.29846932
   0.49999812  0.87471245  0.29846829
   0.74999530  0.37471211  0.29846611
   0.24999975  0.12528439  0.29846908
   0.74998505  0.61924776  0.39488374
   0.00000374  0.88074666  0.39488325
   0.00000000  0.62500000  0.09863264
   0.25000031  0.37470396  0.29847038
   0.99999925  0.11924933  0.39488391
   0.99999908  0.87456008  0.19904691
   0.00001937  0.38075237  0.39488298
   0.00000032  0.62543909  0.19904737
   0.00000153  0.87471298  0.29846722
   0.00000158  0.12528630  0.29846807
   0.00000357  0.62528958  0.29846715
   0.00000258  0.37470936  0.29846859
   0.00001517  0.61925361  0.39488127
   0.99999899  0.12543982  0.19904733
   0.00000056  0.37456082  0.19904776
   0.25000000  0.37500000  0.09863264
   0.00000000  0.87500000  0.09863264
   0.25000136  0.37456086  0.19904829
   0.25000000  0.12500000  0.09863264
   0.25000057  0.12543817  0.19904790
   0.00000000  0.37500000  0.09863264
   0.00000000  0.12500000  0.09863264
   0.62505467  0.50001713  0.39033691
   0.87500687  0.50000599  0.39033680
   0.00000000  0.75000000  0.04887972
   0.75000442  0.75000432  0.35031338
   0.12500000  0.00000000  0.09863264
   0.75000000  0.25000000  0.04887972
   0.87500000  0.00000000  0.09863264
   0.87500264  0.50000026  0.29747241
   0.12496166  0.99999273  0.39033677
   0.75000032  0.24999903  0.14877946
   0.87500233  0.00000046  0.19946564
   0.75000035  0.75000017  0.14877996
   0.12500334  0.00000106  0.19946580
   0.75000130  0.74999897  0.24932372
   0.75000040  0.25000253  0.24932396
   0.87500493  0.99999936  0.29747241
   0.99999997  0.24999959  0.14877941
   0.12499379  0.00000071  0.29747262
   0.75000276  0.24999643  0.35031680
   0.50000355  0.74999834  0.35031029
   0.87502304  0.00000628  0.39033579
   0.00000028  0.24999975  0.24932411
   0.87500141  0.49999959  0.19946524
   0.75000000  0.75000000  0.04887972
   0.87500000  0.50000000  0.09863264
   0.99999538  0.25000061  0.35031377
   0.37499328  0.99999928  0.29747281
   0.62500148  0.49999824  0.19946522
   0.62501028  0.50000416  0.29747288
   0.37502688  0.50000082  0.39033766
   0.24999514  0.74999773  0.35031342
   0.37500000  0.00000000  0.09863264
   0.37499865  0.50000048  0.29747293
   0.24999891  0.74999872  0.24932336
   0.24999994  0.25000005  0.14878008
   0.25000000  0.25000000  0.04887972
   0.37499878  0.49999974  0.19946567
   0.37499693  0.00000036  0.19946577
   0.37500000  0.50000000  0.09863264
   0.25000000  0.75000000  0.04887972
   0.24999931  0.24999988  0.24932357
   0.37500491  0.00000199  0.39033709
   0.24999676  0.25000931  0.35030985
   0.24999988  0.75000028  0.14878013
   0.50000000  0.25000000  0.04887972
   0.62500000  0.00000000  0.09863264
   0.12491168  0.49999131  0.39033775
   0.49999945  0.75000091  0.24932376
   0.99999998  0.75000106  0.14877975
   0.50000014  0.75000023  0.14878057
   0.12499895  0.50000105  0.19946547
   0.62500000  0.50000000  0.09863264
   0.50000000  0.75000000  0.04887972
   0.00000090  0.74999934  0.24932436
   0.62500915  0.00001479  0.39033575
   0.50000514  0.25000181  0.35031323
   0.12498814  0.49999689  0.29747273
   0.62500768  0.99999771  0.29747266
   0.49999998  0.25000268  0.24932367
   0.99999705  0.74999859  0.35031623
   0.62499782  0.99999971  0.19946564
   0.50000014  0.24999957  0.14878038
   0.12500000  0.50000000  0.09863264
   0.00000000  0.25000000  0.04887972
 
 position of ions in cartesian coordinates  (Angst):
   3.05379400  6.69551441 12.11802218
   6.10712785  1.28938072 12.11805137
   6.10694165  4.11632484 12.11797946
   6.10716789  1.35460947  9.15925599
   6.10716313  4.05122029  9.15923629
   6.10720370  1.35620117  6.10825282
   6.10718053  4.04963183  6.10827669
   6.10718542  1.35146153  3.02679635
   6.10718542  4.05438459  3.02679635
   9.16071311  9.52221626 12.11802651
   3.05368456  9.52222606 12.11807081
   3.05358915  6.76047412  9.15927429
   3.05359357  9.45711795  9.15928390
   3.05361098  6.76205247  6.10829042
   3.05360077  9.45549927  6.10827762
   3.05359271  6.75730765  3.02679635
   3.05359271  9.46023072  3.02679635
   3.05368646  1.28939325 12.11814733
   6.10718542  9.46023072  3.02679635
   6.10718542  6.75730765  3.02679635
   6.10719925  9.45546645  6.10827272
   6.10718326  6.76205805  6.10828621
   9.16078559  6.76044600  9.15931594
   9.16077831  9.45715467  9.15930361
   9.16076253  6.76207183  6.10828886
   9.16077319  9.45544373  6.10826970
   9.16077813  6.75730765  3.02679635
   9.16077813  9.46023072  3.02679635
   9.16069555  1.28944575 12.11799248
   9.16063123  4.11640405 12.11794162
   3.05374304  4.11622697 12.11807407
   9.16072298  1.35458222  9.15923860
   9.16077412  1.35620865  6.10825420
   9.16076601  4.04963365  6.10827496
   9.16077813  1.35146153  3.02679635
   9.16077813  4.05438459  3.02679635
   6.10701358  6.69525802 12.11806154
   6.10714588  9.52230510 12.11809849
   6.10714689  6.76048841  9.15929945
   6.10716249  9.45712179  9.15926790
   9.16072068  4.05127204  9.15920097
   3.05358963  1.35453624  9.15929217
   9.16059556  6.69511620 12.11802430
   0.00004566  9.52236187 12.11800910
   0.00000000  6.75730765  3.02679635
   3.05359645  4.05118387  9.15933217
  12.21436167  1.28928707 12.11802926
  12.21435955  9.45547442  6.10826675
   0.00023659  4.11657740 12.11800089
   0.00000390  6.76205495  6.10828086
   0.00001867  9.45712750  9.15923492
   0.00001935  1.35455694  9.15926105
   0.00004355  6.76043850  9.15923304
   0.00003151  4.05124225  9.15927714
   0.00018533  6.69517947 12.11794840
  12.21435846  1.35621674  6.10827969
   0.00000684  4.04963626  6.10829304
   3.05359271  4.05438459  3.02679635
   0.00000000  9.46023072  3.02679635
   3.05360934  4.04963671  6.10830908
   3.05359271  1.35146153  3.02679635
   3.05359966  1.35619887  6.10829715
   0.00000000  4.05438459  3.02679635
   0.00000000  1.35146153  3.02679635
   7.63464949  5.40603134 11.97849290
  10.68765834  5.40591088 11.97848976
   0.00000000  8.10876919  1.50000000
   9.16083207  8.10881594 10.75026798
   1.52679635  0.00000000  3.02679635
   9.16077813  2.70292306  1.50000000
  10.68757448  0.00000000  3.02679635
  10.68760676  5.40584898  9.12870683
   1.52632808 10.81161361 11.97848861
   9.16078198  2.70291255  4.56568091
  10.68760299  0.00000494  6.12111677
   9.16078243  8.10877106  4.56569606
   1.52683720  0.00001144  6.12112162
   9.16079401  8.10875800  7.65114023
   9.16078307  2.70295044  7.65114768
  10.68763472 10.81168536  9.12870680
  12.21437047  2.70291859  4.56567924
   1.52672056  0.00000772  9.12871329
   9.16081186  2.70288447 10.75037284
   6.10722874  8.10875126 10.75017315
  10.68785594  0.00006791 11.97845850
   0.00000338  2.70292032  7.65115231
  10.68759172  5.40584174  6.12110450
   9.16077813  8.10876919  1.50000000
  10.68757448  5.40584612  3.02679635
  12.21431444  2.70292965 10.75027981
   4.58030703 10.81168447  9.12871914
   7.63399991  5.40582705  6.12110390
   7.63410736  5.40589112  9.12872110
   4.58071741  5.40585497 11.97851596
   3.05353329  8.10874466 10.75026904
   4.58038906  0.00000000  3.02679635
   4.58037263  5.40585134  9.12872263
   3.05357941  8.10875537  7.65112919
   3.05359198  2.70292364  4.56569980
   3.05359271  2.70292306  1.50000000
   4.58037420  5.40584328  6.12111759
   4.58035160  0.00000394  6.12112076
   4.58038906  5.40584612  3.02679635
   3.05359271  8.10876919  1.50000000
   3.05358432  2.70292178  7.65113556
   4.58044898  0.00002156 11.97849840
   3.05355308  2.70302375 10.75015960
   3.05359130  8.10877222  4.56570118
   6.10718542  2.70292306  1.50000000
   7.63398177  0.00000000  3.02679635
   1.52571757  5.40575219 11.97851877
   6.10717868  8.10877901  7.65114131
  12.21437060  8.10878063  4.56568958
   6.10718714  8.10877163  4.56571483
   1.52678348  5.40585743  6.12111146
   7.63398177  5.40584612  3.02679635
   6.10718542  8.10876919  1.50000000
   0.00001094  8.10876205  7.65115973
   7.63409359  0.00015994 11.97845747
   6.10724823  2.70294264 10.75026322
   1.52665152  5.40581247  9.12871658
   7.63407561 10.81166747  9.12871430
   6.10718513  2.70295199  7.65113884
  12.21433482  8.10875397 10.75035536
   7.63395513 10.81168910  6.12111680
   6.10718714  2.70291842  4.56570893
   1.52679635  5.40584612  3.02679635
   0.00000000  2.70292306  1.50000000
 


--------------------------------------------------------------------------------------------------------


 k-point     1 :   0.0000 0.0000 0.0000  plane waves:  109127
 k-point     2 :   0.3333 0.0000 0.0000  plane waves:  109026
 k-point     3 :   0.0000 0.3333 0.0000  plane waves:  109092
 k-point     4 :   0.3333 0.3333 0.0000  plane waves:  109143
 k-point     5 :  -0.3333 0.3333 0.0000  plane waves:  109143

 maximum and minimum number of plane-waves per node :    109143   109026

 maximum number of plane-waves:    109143
 maximum index in each direction: 
   IXMAX=   23   IYMAX=   20   IZMAX=   57
   IXMIN=  -23   IYMIN=  -20   IZMIN=  -57


 serial   3D FFT for wavefunctions
 parallel 3D FFT for charge:
    minimum data exchange during FFTs selected (reduces bandwidth)


 total amount of memory used by VASP MPI-rank0 19696918. kBytes
=======================================================================

   base      :      30000. kBytes
   nonlr-proj:      75600. kBytes
   fftplans  :    2158016. kBytes
   grid      :    1331281. kBytes
   one-center:       3981. kBytes
   wavefun   :   16098040. kBytes
 
     INWAV:  cpu time      0.0001: real time      0.0001
 Broyden mixing: mesh for mixing (old mesh)
   NGX = 45   NGY = 41   NGZ =115
  (NGX  =192   NGY  =160   NGZ  =480)
  gives a total of 212175 points

 initial charge density was supplied:
 charge density of overlapping atoms calculated
 number of electron    1408.0000000 magnetization     128.0000000
 keeping initial charge density in first step


--------------------------------------------------------------------------------------------------------


 Maximum index for non-local projection operator          5107
 Maximum index for augmentation-charges        141311 (set IRDMAX)


--------------------------------------------------------------------------------------------------------


 First call to EWALD:  gamma=   0.111
 Maximum number of real-space cells 3x 4x 2
 Maximum number of reciprocal cells 2x 2x 5

    FEWALD:  cpu time      0.2318: real time      0.0790


--------------------------------------- Ionic step        1  -------------------------------------------




--------------------------------------- Iteration      1(   1)  ---------------------------------------


    POTLOK:  cpu time      0.8107: real time      0.7989
    SETDIJ:  cpu time     54.7118: real time     18.5036
     EDDAV:  cpu time    156.9866: real time    156.7928
       DOS:  cpu time      0.0030: real time      0.0030
    --------------------------------------------
      LOOP:  cpu time    212.5122: real time    176.0984

 eigenvalue-minimisations  : 20608
 total energy-change (2. order) : 0.1398950E+05  (-0.8431884E+05)
 number of electron    1408.0000000 magnetization     128.0000000
 augmentation part     1408.0000000 magnetization     128.0000000

 DIPCOR: dipole corrections for dipol
 direction  3 min pos   358,
 dipolmoment           0.000000      0.000000      0.000229 electrons x Angstroem
 Tr[quadrupol]    -33227.569412

 energy correction for charged system         0.000000 eV
 dipol+quadrupol energy correction           -0.000000 eV
 added-field ion interaction          0.006210 eV  (added to PSCEN)


 Free energy of the ion-electron system (eV)
  ---------------------------------------------------
  alpha Z        PSCENC =      3348.72687851
  Ewald energy   TEWEN  =   1140920.57323822
  -Hartree energ DENC   =  -1323193.54044044
  -exchange      EXHF   =         0.00000000
  -V(xc)+E(xc)   XCENC  =      7053.13440470
  PAW double counting   =    166676.93048880  -164946.97049752
  entropy T*S    EENTRO =        -0.03612406
  eigenvalues    EBANDS =    -11319.19101591
  atomic energy  EATOM  =    195449.86891808
  Solvation  Ediel_sol  =         0.00000000
  ---------------------------------------------------
  free energy    TOTEN  =     13989.49585038 eV

  energy without entropy =    13989.53197444  energy(sigma->0) =    13989.51391241


--------------------------------------------------------------------------------------------------------




--------------------------------------- Iteration      1(   2)  ---------------------------------------


     EDDAV:  cpu time    155.7672: real time    155.5555
       DOS:  cpu time      0.0030: real time      0.0030
    --------------------------------------------
      LOOP:  cpu time    155.7702: real time    155.5585

 eigenvalue-minimisations  : 20480
 total energy-change (2. order) :-0.1370359E+05  (-0.1321042E+05)
 number of electron    1408.0000000 magnetization     128.0000000
 augmentation part     1408.0000000 magnetization     128.0000000

 DIPCOR: dipole corrections for dipol
 direction  3 min pos   358,
 dipolmoment           0.000000      0.000000      0.000229 electrons x Angstroem
 Tr[quadrupol]    -33227.569412

 energy correction for charged system         0.000000 eV
 dipol+quadrupol energy correction           -0.000000 eV
 added-field ion interaction          0.006210 eV  (added to PSCEN)


 Free energy of the ion-electron system (eV)
  ---------------------------------------------------
  alpha Z        PSCENC =      3348.72687851
  Ewald energy   TEWEN  =   1140920.57323822
  -Hartree energ DENC   =  -1323193.54044044
  -exchange      EXHF   =         0.00000000
  -V(xc)+E(xc)   XCENC  =      7053.13440470
  PAW double counting   =    166676.93048880  -164946.97049752
  entropy T*S    EENTRO =        -0.05733536
  eigenvalues    EBANDS =    -25022.75700543
  atomic energy  EATOM  =    195449.86891808
  Solvation  Ediel_sol  =         0.00000000
  ---------------------------------------------------
  free energy    TOTEN  =       285.90864956 eV

  energy without entropy =      285.96598492  energy(sigma->0) =      285.93731724


--------------------------------------------------------------------------------------------------------




--------------------------------------- Iteration      1(   3)  ---------------------------------------


     EDDAV:  cpu time    154.1956: real time    154.0185
       DOS:  cpu time      0.0030: real time      0.0030
    --------------------------------------------
      LOOP:  cpu time    154.1986: real time    154.0215

 eigenvalue-minimisations  : 20152
 total energy-change (2. order) :-0.1030820E+04  (-0.9960325E+03)
 number of electron    1408.0000000 magnetization     128.0000000
 augmentation part     1408.0000000 magnetization     128.0000000

 DIPCOR: dipole corrections for dipol
 direction  3 min pos   358,
 dipolmoment           0.000000      0.000000      0.000229 electrons x Angstroem
 Tr[quadrupol]    -33227.569412

 energy correction for charged system         0.000000 eV
 dipol+quadrupol energy correction           -0.000000 eV
 added-field ion interaction          0.006210 eV  (added to PSCEN)


 Free energy of the ion-electron system (eV)
  ---------------------------------------------------
  alpha Z        PSCENC =      3348.72687851
  Ewald energy   TEWEN  =   1140920.57323822
  -Hartree energ DENC   =  -1323193.54044044
  -exchange      EXHF   =         0.00000000
  -V(xc)+E(xc)   XCENC  =      7053.13440470
  PAW double counting   =    166676.93048880  -164946.97049752
  entropy T*S    EENTRO =        -0.06488345
  eigenvalues    EBANDS =    -26053.56920968
  atomic energy  EATOM  =    195449.86891808
  Solvation  Ediel_sol  =         0.00000000
  ---------------------------------------------------
  free energy    TOTEN  =      -744.91110278 eV

  energy without entropy =     -744.84621933  energy(sigma->0) =     -744.87866106


--------------------------------------------------------------------------------------------------------




--------------------------------------- Iteration      1(   4)  ---------------------------------------


     EDDAV:  cpu time    152.3515: real time    152.1510
       DOS:  cpu time      0.0032: real time      0.0032
    --------------------------------------------
      LOOP:  cpu time    152.3548: real time    152.1542

 eigenvalue-minimisations  : 19928
 total energy-change (2. order) :-0.2881840E+02  (-0.2863467E+02)
 number of electron    1408.0000000 magnetization     128.0000000
 augmentation part     1408.0000000 magnetization     128.0000000

 DIPCOR: dipole corrections for dipol
 direction  3 min pos   358,
 dipolmoment           0.000000      0.000000      0.000229 electrons x Angstroem
 Tr[quadrupol]    -33227.569412

 energy correction for charged system         0.000000 eV
 dipol+quadrupol energy correction           -0.000000 eV
 added-field ion interaction          0.006210 eV  (added to PSCEN)


 Free energy of the ion-electron system (eV)
  ---------------------------------------------------
  alpha Z        PSCENC =      3348.72687851
  Ewald energy   TEWEN  =   1140920.57323822
  -Hartree energ DENC   =  -1323193.54044044
  -exchange      EXHF   =         0.00000000
  -V(xc)+E(xc)   XCENC  =      7053.13440470
  PAW double counting   =    166676.93048880  -164946.97049752
  entropy T*S    EENTRO =        -0.06337817
  eigenvalues    EBANDS =    -26082.38911392
  atomic energy  EATOM  =    195449.86891808
  Solvation  Ediel_sol  =         0.00000000
  ---------------------------------------------------
  free energy    TOTEN  =      -773.72950174 eV

  energy without entropy =     -773.66612357  energy(sigma->0) =     -773.69781265


--------------------------------------------------------------------------------------------------------




--------------------------------------- Iteration      1(   5)  ---------------------------------------


     EDDAV:  cpu time    152.6024: real time    152.4183
       DOS:  cpu time      0.0033: real time      0.0032
    CHARGE:  cpu time     27.0652: real time     23.0670
    MIXING:  cpu time      0.8269: real time      0.3347
    --------------------------------------------
      LOOP:  cpu time    180.4979: real time    175.8233

 eigenvalue-minimisations  : 20024
 total energy-change (2. order) :-0.5172610E+00  (-0.5166755E+00)
 number of electron    1408.0000043 magnetization     121.1348513
 augmentation part      519.0662009 magnetization     112.4936731

 DIPCOR: dipole corrections for dipol
 direction  3 min pos   358,
 dipolmoment           0.000000      0.000000      0.000229 electrons x Angstroem
 Tr[quadrupol]    -33227.569412

 energy correction for charged system         0.000000 eV
 dipol+quadrupol energy correction           -0.000000 eV
 added-field ion interaction          0.006210 eV  (added to PSCEN)


 Broyden mixing:
  rms(total) = 0.99323E+01    rms(broyden)= 0.99302E+01
  rms(prec ) = 0.10165E+02
  weight for this iteration     100.00

 Free energy of the ion-electron system (eV)
  ---------------------------------------------------
  alpha Z        PSCENC =      3348.72687851
  Ewald energy   TEWEN  =   1140920.57323822
  -Hartree energ DENC   =  -1323193.54044044
  -exchange      EXHF   =         0.00000000
  -V(xc)+E(xc)   XCENC  =      7053.13440470
  PAW double counting   =    166676.93048880  -164946.97049752
  entropy T*S    EENTRO =        -0.06340677
  eigenvalues    EBANDS =    -26082.90634631
  atomic energy  EATOM  =    195449.86891808
  Solvation  Ediel_sol  =         0.00000000
  ---------------------------------------------------
  free energy    TOTEN  =      -774.24676273 eV

  energy without entropy =     -774.18335596  energy(sigma->0) =     -774.21505934


--------------------------------------------------------------------------------------------------------




--------------------------------------- Iteration      1(   6)  ---------------------------------------


    POTLOK:  cpu time      0.7488: real time      0.7310
    SETDIJ:  cpu time     54.5042: real time     18.1537
     EDDAV:  cpu time    142.0948: real time    141.9092
       DOS:  cpu time      0.0031: real time      0.0031
    CHARGE:  cpu time     16.3048: real time     12.9558
    MIXING:  cpu time      0.7058: real time      0.2624
    --------------------------------------------
      LOOP:  cpu time    214.3615: real time    174.0153

 eigenvalue-minimisations  : 19112
 total energy-change (2. order) : 0.1305922E+03  (-0.7563872E+02)
 number of electron    1408.0000045 magnetization     117.6545725
 augmentation part      542.4679797 magnetization      94.0663319

 DIPCOR: dipole corrections for dipol
 direction  3 min pos   371,
 dipolmoment           0.000000      0.000000      2.434799 electrons x Angstroem
 Tr[quadrupol]    -33228.774248

 energy correction for charged system         0.000000 eV
 dipol+quadrupol energy correction           -0.132355 eV
 added-field ion interaction        193.320257 eV  (added to PSCEN)


 Broyden mixing:
  rms(total) = 0.68157E+01    rms(broyden)= 0.68132E+01
  rms(prec ) = 0.83666E+01
  weight for this iteration     100.00

 eigenvalues of (default mixing * dielectric matrix)
  average eigenvalue GAMMA=   0.6963
  0.6963

 Free energy of the ion-electron system (eV)
  ---------------------------------------------------
  alpha Z        PSCENC =      3541.90857063
  Ewald energy   TEWEN  =   1140920.57323822
  -Hartree energ DENC   =  -1322027.99318974
  -exchange      EXHF   =         0.00000000
  -V(xc)+E(xc)   XCENC  =      7099.31827302
  PAW double counting   =    170570.13306916  -169022.00310266
  entropy T*S    EENTRO =        -0.11409481
  eigenvalues    EBANDS =    -27175.34626582
  atomic energy  EATOM  =    195449.86891808
  Solvation  Ediel_sol  =         0.00000000
  ---------------------------------------------------
  free energy    TOTEN  =      -643.65458391 eV

  energy without entropy =     -643.54048910  energy(sigma->0) =     -643.59753651


--------------------------------------------------------------------------------------------------------




--------------------------------------- Iteration      1(   7)  ---------------------------------------


    POTLOK:  cpu time      0.6817: real time      0.6666
    SETDIJ:  cpu time     53.9662: real time     18.0988
     EDDAV:  cpu time    114.4551: real time    114.2408
       DOS:  cpu time      0.0032: real time      0.0031
    CHARGE:  cpu time     15.8789: real time     12.5739
    MIXING:  cpu time      0.8316: real time      0.2916
    --------------------------------------------
      LOOP:  cpu time    185.8167: real time    145.8749

 eigenvalue-minimisations  : 22204
 total energy-change (2. order) :-0.8324825E+03  (-0.3572347E+02)
 number of electron    1408.0000040 magnetization     116.6779992
 augmentation part      496.3334598 magnetization      93.7542558

 DIPCOR: dipole corrections for dipol
 direction  3 min pos   365,
 dipolmoment           0.000000      0.000000     -9.242380 electrons x Angstroem
 Tr[quadrupol]    -33238.165570

 energy correction for charged system         0.000000 eV
 dipol+quadrupol energy correction           -1.907130 eV
 added-field ion interaction       -510.938599 eV  (added to PSCEN)


 Broyden mixing:
  rms(total) = 0.18570E+02    rms(broyden)= 0.18569E+02
  rms(prec ) = 0.31257E+02
  weight for this iteration     100.00

 eigenvalues of (default mixing * dielectric matrix)
  average eigenvalue GAMMA=   0.4120
  0.7313  0.0927

 Free energy of the ion-electron system (eV)
  ---------------------------------------------------
  alpha Z        PSCENC =      2835.87493876
  Ewald energy   TEWEN  =   1140920.57323822
  -Hartree energ DENC   =  -1323976.83469405
  -exchange      EXHF   =         0.00000000
  -V(xc)+E(xc)   XCENC  =      7105.94170753
  PAW double counting   =    173812.49637788  -172224.12681122
  entropy T*S    EENTRO =        -0.10904278
  eigenvalues    EBANDS =    -25399.82167789
  atomic energy  EATOM  =    195449.86891808
  Solvation  Ediel_sol  =         0.00000000
  ---------------------------------------------------
  free energy    TOTEN  =     -1476.13704547 eV

  energy without entropy =    -1476.02800269  energy(sigma->0) =    -1476.08252408


--------------------------------------------------------------------------------------------------------




--------------------------------------- Iteration      1(   8)  ---------------------------------------


    POTLOK:  cpu time      0.6829: real time      0.6695
    SETDIJ:  cpu time     52.8679: real time     17.4573
     EDDAV:  cpu time    121.1437: real time    120.9452
       DOS:  cpu time      0.0033: real time      0.0033
    CHARGE:  cpu time     15.8782: real time     12.3864
    MIXING:  cpu time      0.5665: real time      0.2343
    --------------------------------------------
      LOOP:  cpu time    191.1424: real time    151.6960

 eigenvalue-minimisations  : 23728
 total energy-change (2. order) : 0.8338325E+03  (-0.1220497E+03)
 number of electron    1408.0000043 magnetization     114.3614810
 augmentation part      528.4664369 magnetization      91.8213254

 DIPCOR: dipole corrections for dipol
 direction  3 min pos   362,
 dipolmoment           0.000000      0.000000      4.069623 electrons x Angstroem
 Tr[quadrupol]    -33234.510186

 energy correction for charged system         0.000000 eV
 dipol+quadrupol energy correction           -0.369761 eV
 added-field ion interaction        175.904562 eV  (added to PSCEN)


 Broyden mixing:
  rms(total) = 0.69539E+01    rms(broyden)= 0.69525E+01
  rms(prec ) = 0.81823E+01
  weight for this iteration     100.00

 eigenvalues of (default mixing * dielectric matrix)
  average eigenvalue GAMMA=   0.3881
  0.8150  0.2725  0.0767

 Free energy of the ion-electron system (eV)
  ---------------------------------------------------
  alpha Z        PSCENC =      3524.25546908
  Ewald energy   TEWEN  =   1140920.57323822
  -Hartree energ DENC   =  -1323442.85547137
  -exchange      EXHF   =         0.00000000
  -V(xc)+E(xc)   XCENC  =      7102.55749815
  PAW double counting   =    173844.45540839  -172287.41389027
  entropy T*S    EENTRO =        -0.14752022
  eigenvalues    EBANDS =    -25753.59818292
  atomic energy  EATOM  =    195449.86891808
  Solvation  Ediel_sol  =         0.00000000
  ---------------------------------------------------
  free energy    TOTEN  =      -642.30453285 eV

  energy without entropy =     -642.15701263  energy(sigma->0) =     -642.23077274


--------------------------------------------------------------------------------------------------------




--------------------------------------- Iteration      1(   9)  ---------------------------------------


    POTLOK:  cpu time      0.6589: real time      0.6411
    SETDIJ:  cpu time     53.6727: real time     17.7370
     EDDAV:  cpu time    105.6847: real time    105.5082
       DOS:  cpu time      0.0031: real time      0.0030
    CHARGE:  cpu time     16.2848: real time     13.0694
    MIXING:  cpu time      0.4953: real time      0.2291
    --------------------------------------------
      LOOP:  cpu time    176.7995: real time    137.1879

 eigenvalue-minimisations  : 20104
 total energy-change (2. order) : 0.4324669E+02  (-0.3034550E+02)
 number of electron    1408.0000043 magnetization     111.4529449
 augmentation part      529.7044897 magnetization      92.0225882

 DIPCOR: dipole corrections for dipol
 direction  3 min pos   375,
 dipolmoment           0.000000      0.000000      4.536862 electrons x Angstroem
 Tr[quadrupol]    -33212.091360

 energy correction for charged system         0.000000 eV
 dipol+quadrupol energy correction           -0.459541 eV
 added-field ion interaction        433.164393 eV  (added to PSCEN)


 Broyden mixing:
  rms(total) = 0.42321E+01    rms(broyden)= 0.42310E+01
  rms(prec ) = 0.50335E+01
  weight for this iteration     100.00

 eigenvalues of (default mixing * dielectric matrix)
  average eigenvalue GAMMA=   0.4005
  0.9116  0.3873  0.0837  0.2192

 Free energy of the ion-electron system (eV)
  ---------------------------------------------------
  alpha Z        PSCENC =      3781.42552109
  Ewald energy   TEWEN  =   1140920.57323822
  -Hartree energ DENC   =  -1322177.26232908
  -exchange      EXHF   =         0.00000000
  -V(xc)+E(xc)   XCENC  =      7107.11949374
  PAW double counting   =    175069.97334572  -173530.61856154
  entropy T*S    EENTRO =        -0.07159716
  eigenvalues    EBANDS =    -27220.06586745
  atomic energy  EATOM  =    195449.86891808
  Solvation  Ediel_sol  =         0.00000000
  ---------------------------------------------------
  free energy    TOTEN  =      -599.05783836 eV

  energy without entropy =     -598.98624120  energy(sigma->0) =     -599.02203978


--------------------------------------------------------------------------------------------------------




--------------------------------------- Iteration      1(  10)  ---------------------------------------


    POTLOK:  cpu time      0.6546: real time      0.6395
    SETDIJ:  cpu time     54.3140: real time     18.1433
     EDDAV:  cpu time    103.7072: real time    103.5661
       DOS:  cpu time      0.0031: real time      0.0031
    CHARGE:  cpu time     17.5673: real time     14.0028
    MIXING:  cpu time      0.8586: real time      0.3261
    --------------------------------------------
      LOOP:  cpu time    177.1047: real time    136.6810

 eigenvalue-minimisations  : 19632
 total energy-change (2. order) : 0.1919656E+02  (-0.5315706E+01)
 number of electron    1408.0000044 magnetization     104.4825824
 augmentation part      531.6398481 magnetization      84.5447661

 DIPCOR: dipole corrections for dipol
 direction  3 min pos   381,
 dipolmoment           0.000000      0.000000      5.031297 electrons x Angstroem
 Tr[quadrupol]    -33204.065824

 energy correction for charged system         0.000000 eV
 dipol+quadrupol energy correction           -0.565162 eV
 added-field ion interaction        601.709716 eV  (added to PSCEN)


 Broyden mixing:
  rms(total) = 0.31570E+01    rms(broyden)= 0.31567E+01
  rms(prec ) = 0.37310E+01
  weight for this iteration     100.00

 eigenvalues of (default mixing * dielectric matrix)
  average eigenvalue GAMMA=   0.5037
  1.1338  0.5314  0.5314  0.0823  0.2395

 Free energy of the ion-electron system (eV)
  ---------------------------------------------------
  alpha Z        PSCENC =      3949.86522220
  Ewald energy   TEWEN  =   1140920.57323822
  -Hartree energ DENC   =  -1321803.34685274
  -exchange      EXHF   =         0.00000000
  -V(xc)+E(xc)   XCENC  =      7111.50555183
  PAW double counting   =    176176.57410593  -174658.13555043
  entropy T*S    EENTRO =        -0.08251152
  eigenvalues    EBANDS =    -27726.68339684
  atomic energy  EATOM  =    195449.86891808
  Solvation  Ediel_sol  =         0.00000000
  ---------------------------------------------------
  free energy    TOTEN  =      -579.86127527 eV

  energy without entropy =     -579.77876375  energy(sigma->0) =     -579.82001951


--------------------------------------------------------------------------------------------------------




--------------------------------------- Iteration      1(  11)  ---------------------------------------


    POTLOK:  cpu time      0.6901: real time      0.6749
    SETDIJ:  cpu time     55.6347: real time     19.6631
     EDDAV:  cpu time    102.5133: real time    102.3225
       DOS:  cpu time      0.0031: real time      0.0031
    CHARGE:  cpu time     17.4603: real time     13.9517
    MIXING:  cpu time      0.5985: real time      0.2750
    --------------------------------------------
      LOOP:  cpu time    176.9000: real time    136.8904

 eigenvalue-minimisations  : 19356
 total energy-change (2. order) : 0.3122179E+00  (-0.1591420E+01)
 number of electron    1408.0000044 magnetization      97.1128550
 augmentation part      531.9773522 magnetization      73.7238525

 DIPCOR: dipole corrections for dipol
 direction  3 min pos   382,
 dipolmoment           0.000000      0.000000      6.848458 electrons x Angstroem
 Tr[quadrupol]    -33187.296696

 energy correction for charged system         0.000000 eV
 dipol+quadrupol energy correction           -1.047125 eV
 added-field ion interaction        846.557135 eV  (added to PSCEN)


 Broyden mixing:
  rms(total) = 0.28869E+01    rms(broyden)= 0.28867E+01
  rms(prec ) = 0.40064E+01
  weight for this iteration     100.00

[...]
      3.05359      1.35146      3.02680         0.000010     -0.593460      0.486311
      3.05360      1.35540      6.10802        -0.000001     -0.000663     -0.022924
      0.00000      4.05438      3.02680        -0.000002      0.593504      0.486291
      0.00000      1.35146      3.02680         0.000000     -0.593471      0.486311
      7.63390      5.40581     11.97566         0.004373      0.002066     -0.017929
     10.68760      5.40583     11.97567        -0.001004      0.000642     -0.017944
      0.00000      8.10877      1.50000         0.000001      0.000003     -1.078401
      9.16080      8.10879     10.75032         0.000015     -0.000169     -0.022166
      1.52680      0.00000      3.02680        -0.000001      0.000005      0.276709
      9.16078      2.70292      1.50000         0.000002     -0.000006     -1.078410
     10.68757      0.00000      3.02680         0.000009     -0.000005      0.276708
     10.68758      5.40584      9.12792        -0.000064      0.000106     -0.016221
      1.52679      0.00003     11.97569        -0.000211     -0.001149     -0.017997
      9.16078      2.70292      4.56560         0.000007     -0.000088     -0.003766
     10.68756     10.81168      6.11658         0.000378      0.000173     -0.018997
      9.16078      8.10876      4.56559         0.000018      0.000126     -0.003556
      1.52679      0.00000      6.11658         0.000443      0.000071     -0.019040
      9.16079      8.10878      7.64772        -0.000064     -0.000392      0.004587
      9.16077      2.70291      7.64769         0.000119      0.000458      0.005243
     10.68757      0.00001      9.12792         0.000347     -0.000224     -0.016284
      0.00000      2.70293      4.56561         0.000015     -0.000086     -0.003919
      1.52678     10.81168      9.12793         0.000327      0.000264     -0.016270
      9.16078      2.70294     10.75025         0.000181     -0.000199     -0.020422
      6.10719      8.10880     10.75032         0.000008     -0.000608     -0.022416
     10.68757     10.81168     11.97566         0.000162      0.000647     -0.017809
      0.00000      2.70292      7.64770        -0.000013      0.000171      0.004977
     10.68757      5.40585      6.11658         0.000156     -0.000065     -0.019005
      9.16078      8.10877      1.50000         0.000001      0.000005     -1.078414
     10.68757      5.40585      3.02680         0.000013     -0.000007      0.276701
     12.21437      2.70290     10.75032        -0.000131      0.000469     -0.022079
      4.58040      0.00000      9.12793        -0.000792     -0.000096     -0.016288
      7.63398      5.40585      6.11658         0.000151     -0.000185     -0.018986
      7.63396      5.40586      9.12793         0.000906      0.000144     -0.016246
      4.58038      5.40585     11.97565         0.000260     -0.000060     -0.017809
      3.05358      8.10877     10.75027        -0.000199     -0.000110     -0.020910
      4.58039      0.00000      3.02680        -0.000015     -0.000001      0.276713
      4.58038      5.40585      9.12794        -0.000070      0.000066     -0.016369
      3.05358      8.10877      7.64771        -0.000010     -0.000073      0.004956
      3.05359      2.70293      4.56561        -0.000014     -0.000106     -0.003784
      3.05359      2.70292      1.50000        -0.000002     -0.000006     -1.078379
      4.58040      5.40585      6.11659        -0.000208     -0.000022     -0.019018
      4.58041     10.81169      6.11658        -0.000463      0.000060     -0.019005
      4.58039      5.40585      3.02680        -0.000019     -0.000004      0.276706
      3.05359      8.10877      1.50000        -0.000002      0.000001     -1.078400
      3.05359      2.70292      7.64773        -0.000011     -0.000017      0.004753
      4.58041      0.00000     11.97567        -0.000950      0.000055     -0.017896
      3.05358      2.70288     10.75033        -0.000121      0.001333     -0.022408
      3.05360      8.10877      4.56560        -0.000021      0.000060     -0.003656
      6.10719      2.70292      1.50000        -0.000001     -0.000006     -1.078431
      7.63398      0.00000      3.02680         0.000011     -0.000011      0.276715
      1.52686      5.40588     11.97568        -0.003796     -0.001418     -0.017952
      6.10718      8.10877      7.64771        -0.000004      0.000020      0.004954
      0.00000      8.10877      4.56560         0.000028      0.000107     -0.003760
      6.10719      8.10876      4.56559        -0.000026      0.000136     -0.003442
      1.52680      5.40584      6.11659        -0.000090      0.000102     -0.019034
      7.63398      5.40585      3.02680         0.000006     -0.000009      0.276707
      6.10719      8.10877      1.50000        -0.000001      0.000004     -1.078425
      0.00001      8.10878      7.64769        -0.000026     -0.000208      0.005269
      7.63396     10.81166     11.97566         0.000979      0.001554     -0.017862
      6.10719      2.70293     10.75026         0.000185      0.000071     -0.020975
      1.52681      5.40584      9.12794        -0.000621     -0.000204     -0.016306
      7.63397      0.00001      9.12792         0.000376     -0.000324     -0.016283
      6.10719      2.70291      7.64770        -0.000010      0.000335      0.005164
     12.21437      8.10878     10.75028        -0.000125     -0.000563     -0.021002
      7.63400     10.81168      6.11658        -0.000394      0.000173     -0.018977
      6.10719      2.70293      4.56559        -0.000021     -0.000073     -0.003436
      1.52680      5.40585      3.02680         0.000003     -0.000004      0.276703
      0.00000      2.70292      1.50000         0.000001     -0.000006     -1.078380
 -----------------------------------------------------------------------------------
    total drift:                               -0.000093      0.000120      0.039835


--------------------------------------------------------------------------------------------------------



  FREE ENERGIE OF THE ION-ELECTRON SYSTEM (eV)
  ---------------------------------------------------
  free  energy   TOTEN  =      -724.15239062 eV

  energy  without entropy=     -724.05293738  energy(sigma->0) =     -724.10266400
 
 d Force = 0.1697824E-02[ 0.142E-02, 0.198E-02]  d Energy = 0.1669019E-02 0.288E-04
 d Force =-0.1673959E+03[-0.167E+03,-0.167E+03]  d Ewald  =-0.1673959E+03 0.375E-05


--------------------------------------------------------------------------------------------------------


    POTLOK:  cpu time     48.5127: real time     14.8319


--------------------------------------------------------------------------------------------------------


 Conjugate gradient step on ions:
 trial-energy change:   -0.001669  1 .order   -0.001698   -0.001980   -0.001416
  (g-gl).g = 0.192E-02      g.g   = 0.202E-02  gl.gl    = 0.518E-02
 g(Force)  = 0.202E-02   g(Stress)= 0.000E+00 ortho     = 0.986E-04
 gamma     =   0.37072
 trial     =   0.96264
 opt step  =   3.37666  (harmonic =   3.37666) maximal distance =0.00200316
 next E    =  -724.154194   (d E  =  -0.00347)


--------------------------------------------------------------------------------------------------------


  
 reached required accuracy - stopping structural energy minimisation
     LOOP+:  cpu time   5094.6495: real time   3617.3468
 vacuum level on the upper side and lower side of the slab         5.872         3.305
    4ORBIT:  cpu time      0.0001: real time      0.0002



 total charge

# of ion       s       p       d       tot
------------------------------------------
    1        1.575   3.344   0.000   4.919
    2        1.575   3.344   0.000   4.919
    3        1.575   3.344   0.000   4.919
    4        1.564   3.381   0.000   4.945
    5        1.564   3.381   0.000   4.945
    6        1.563   3.381   0.000   4.944
    7        1.563   3.381   0.000   4.944
    8        1.567   3.369   0.000   4.936
    9        1.567   3.369   0.000   4.936
   10        1.575   3.344   0.000   4.919
   11        1.575   3.344   0.000   4.919
   12        1.564   3.381   0.000   4.945
   13        1.564   3.381   0.000   4.945
   14        1.563   3.381   0.000   4.944
   15        1.563   3.381   0.000   4.944
   16        1.567   3.369   0.000   4.936
   17        1.567   3.369   0.000   4.936
   18        1.575   3.344   0.000   4.919
   19        1.567   3.369   0.000   4.936
   20        1.567   3.369   0.000   4.936
   21        1.563   3.381   0.000   4.944
   22        1.563   3.381   0.000   4.944
   23        1.564   3.381   0.000   4.945
   24        1.564   3.381   0.000   4.945
   25        1.563   3.381   0.000   4.944
   26        1.563   3.381   0.000   4.944
   27        1.567   3.369   0.000   4.936
   28        1.567   3.369   0.000   4.936
   29        1.575   3.344   0.000   4.919
   30        1.575   3.344   0.000   4.919
   31        1.575   3.344   0.000   4.919
   32        1.564   3.381   0.000   4.945
   33        1.563   3.381   0.000   4.944
   34        1.563   3.381   0.000   4.944
   35        1.567   3.369   0.000   4.936
   36        1.567   3.369   0.000   4.936
   37        1.575   3.344   0.000   4.919
   38        1.575   3.344   0.000   4.919
   39        1.564   3.381   0.000   4.945
   40        1.564   3.381   0.000   4.945
   41        1.564   3.381   0.000   4.945
   42        1.564   3.381   0.000   4.945
   43        1.575   3.344   0.000   4.919
   44        1.575   3.344   0.000   4.919
   45        1.567   3.369   0.000   4.936
   46        1.564   3.381   0.000   4.945
   47        1.575   3.344   0.000   4.919
   48        1.563   3.381   0.000   4.944
   49        1.575   3.344   0.000   4.919
   50        1.563   3.381   0.000   4.944
   51        1.564   3.381   0.000   4.945
   52        1.564   3.381   0.000   4.945
   53        1.564   3.381   0.000   4.945
   54        1.564   3.381   0.000   4.945
   55        1.575   3.344   0.000   4.919
   56        1.563   3.381   0.000   4.944
   57        1.563   3.381   0.000   4.944
   58        1.567   3.369   0.000   4.936
   59        1.567   3.369   0.000   4.936
   60        1.563   3.381   0.000   4.944
   61        1.567   3.369   0.000   4.936
   62        1.563   3.381   0.000   4.944
   63        1.567   3.369   0.000   4.936
   64        1.567   3.369   0.000   4.936
   65        0.317   6.222   7.835  14.374
   66        0.317   6.222   7.835  14.374
   67        0.218   6.087   8.119  14.424
   68        0.305   6.200   7.869  14.374
   69        0.297   6.182   7.922  14.401
   70        0.218   6.087   8.119  14.424
   71        0.297   6.182   7.922  14.401
   72        0.297   6.197   7.893  14.387
   73        0.317   6.222   7.835  14.374
   74        0.290   6.182   7.916  14.388
   75        0.296   6.187   7.914  14.396
   76        0.290   6.182   7.916  14.388
   77        0.296   6.187   7.914  14.396
   78        0.299   6.191   7.912  14.402
   79        0.299   6.191   7.912  14.402
   80        0.297   6.197   7.893  14.387
   81        0.290   6.182   7.916  14.388
   82        0.297   6.197   7.893  14.387
   83        0.305   6.200   7.869  14.374
   84        0.305   6.200   7.869  14.374
   85        0.317   6.222   7.835  14.374
   86        0.299   6.191   7.912  14.402
   87        0.296   6.187   7.914  14.396
   88        0.218   6.087   8.119  14.424
   89        0.297   6.182   7.922  14.401
   90        0.305   6.200   7.869  14.374
   91        0.297   6.197   7.893  14.387
   92        0.296   6.187   7.914  14.396
   93        0.297   6.197   7.893  14.387
   94        0.317   6.222   7.835  14.374
   95        0.305   6.200   7.869  14.374
   96        0.297   6.182   7.922  14.401
   97        0.297   6.197   7.893  14.387
   98        0.299   6.191   7.912  14.402
   99        0.290   6.182   7.916  14.388
  100        0.218   6.087   8.119  14.424
  101        0.296   6.187   7.914  14.396
  102        0.296   6.187   7.914  14.396
  103        0.297   6.182   7.922  14.401
  104        0.218   6.087   8.119  14.424
  105        0.299   6.191   7.912  14.402
  106        0.317   6.222   7.835  14.374
  107        0.305   6.200   7.869  14.374
  108        0.290   6.182   7.916  14.388
  109        0.218   6.087   8.119  14.424
  110        0.297   6.182   7.922  14.401
  111        0.317   6.222   7.835  14.374
  112        0.299   6.191   7.912  14.402
  113        0.290   6.182   7.916  14.388
  114        0.290   6.182   7.916  14.388
  115        0.296   6.187   7.914  14.396
  116        0.297   6.182   7.922  14.401
  117        0.218   6.087   8.119  14.424
  118        0.299   6.191   7.912  14.402
  119        0.317   6.222   7.835  14.374
  120        0.305   6.200   7.869  14.374
  121        0.297   6.197   7.893  14.387
  122        0.297   6.197   7.893  14.387
  123        0.299   6.191   7.912  14.402
  124        0.305   6.200   7.869  14.374
  125        0.296   6.187   7.914  14.396
  126        0.290   6.182   7.916  14.388
  127        0.297   6.182   7.922  14.401
  128        0.218   6.087   8.119  14.424
--------------------------------------------------
tot        118.849 611.194 507.0271237.071



 magnetization (x)

# of ion       s       p       d       tot
------------------------------------------
    1        0.001   0.037   0.000   0.038
    2        0.001   0.037   0.000   0.038
    3        0.001   0.037   0.000   0.038
    4        0.001   0.010   0.000   0.012
    5        0.001   0.010   0.000   0.012
    6        0.001   0.004   0.000   0.004
    7        0.001   0.004   0.000   0.004
    8        0.005   0.086   0.000   0.092
    9        0.005   0.086   0.000   0.092
   10        0.001   0.037   0.000   0.038
   11        0.001   0.037   0.000   0.038
   12        0.001   0.010   0.000   0.012
   13        0.001   0.010   0.000   0.012
   14        0.001   0.004   0.000   0.004
   15        0.001   0.004   0.000   0.004
   16        0.005   0.086   0.000   0.092
   17        0.005   0.086   0.000   0.092
   18        0.001   0.037   0.000   0.038
   19        0.005   0.086   0.000   0.092
   20        0.005   0.086   0.000   0.092
   21        0.001   0.004   0.000   0.004
   22        0.001   0.004   0.000   0.004
   23        0.001   0.010   0.000   0.012
   24        0.001   0.010   0.000   0.012
   25        0.001   0.004   0.000   0.004
   26        0.001   0.004   0.000   0.004
   27        0.005   0.086   0.000   0.092
   28        0.005   0.086   0.000   0.092
   29        0.001   0.037   0.000   0.038
   30        0.001   0.037   0.000   0.038
   31        0.001   0.037   0.000   0.038
   32        0.001   0.010   0.000   0.012
   33        0.001   0.004   0.000   0.004
   34        0.001   0.004   0.000   0.004
   35        0.005   0.086   0.000   0.092
   36        0.005   0.086   0.000   0.092
   37        0.001   0.037   0.000   0.038
   38        0.001   0.037   0.000   0.038
   39        0.001   0.010   0.000   0.012
   40        0.001   0.010   0.000   0.012
   41        0.001   0.010   0.000   0.012
   42        0.001   0.010   0.000   0.012
   43        0.001   0.037   0.000   0.038
   44        0.001   0.037   0.000   0.038
   45        0.005   0.086   0.000   0.092
   46        0.001   0.010   0.000   0.012
   47        0.001   0.037   0.000   0.038
   48        0.001   0.004   0.000   0.004
   49        0.001   0.037   0.000   0.038
   50        0.001   0.004   0.000   0.004
   51        0.001   0.010   0.000   0.012
   52        0.001   0.010   0.000   0.012
   53        0.001   0.010   0.000   0.012
   54        0.001   0.010   0.000   0.012
   55        0.001   0.037   0.000   0.038
   56        0.001   0.004   0.000   0.004
   57        0.001   0.004   0.000   0.004
   58        0.005   0.086   0.000   0.092
   59        0.005   0.086   0.000   0.092
   60        0.001   0.004   0.000   0.004
   61        0.005   0.086   0.000   0.092
   62        0.001   0.004   0.000   0.004
   63        0.005   0.086   0.000   0.092
   64        0.005   0.086   0.000   0.092
   65        0.013   0.000   0.149   0.162
   66        0.013   0.000   0.149   0.162
   67       -0.003   0.015   0.507   0.519
   68        0.001   0.000   0.042   0.044
   69        0.004   0.003   0.072   0.079
   70       -0.003   0.015   0.507   0.519
   71        0.004   0.003   0.072   0.079
   72        0.004   0.000   0.126   0.129
   73        0.013   0.000   0.149   0.162
   74       -0.000   0.000   0.004   0.004
   75        0.001   0.001   0.069   0.071
   76       -0.000   0.000   0.004   0.004
   77        0.001   0.001   0.069   0.071
   78        0.000   0.000   0.020   0.020
   79        0.000   0.000   0.020   0.020
   80        0.004   0.000   0.126   0.129
   81       -0.000   0.000   0.004   0.004
   82        0.004   0.000   0.126   0.129
   83        0.001   0.000   0.042   0.044
   84        0.001   0.000   0.042   0.044
   85        0.013   0.000   0.149   0.162
   86        0.000   0.000   0.020   0.020
   87        0.001   0.001   0.069   0.071
   88       -0.003   0.015   0.507   0.519
   89        0.004   0.003   0.072   0.079
   90        0.001   0.000   0.042   0.044
   91        0.004   0.000   0.126   0.129
   92        0.001   0.001   0.069   0.071
   93        0.004   0.000   0.126   0.129
   94        0.013   0.000   0.149   0.162
   95        0.001   0.000   0.042   0.044
   96        0.004   0.003   0.072   0.079
   97        0.004   0.000   0.126   0.129
   98        0.000   0.000   0.020   0.020
   99       -0.000   0.000   0.004   0.004
  100       -0.003   0.015   0.507   0.519
  101        0.001   0.001   0.069   0.071
  102        0.001   0.001   0.069   0.071
  103        0.004   0.003   0.072   0.079
  104       -0.003   0.015   0.507   0.519
  105        0.000   0.000   0.020   0.020
  106        0.013   0.000   0.149   0.162
  107        0.001   0.000   0.042   0.044
  108       -0.000   0.000   0.004   0.004
  109       -0.003   0.015   0.507   0.519
  110        0.004   0.003   0.072   0.079
  111        0.013   0.000   0.149   0.162
  112        0.000   0.000   0.020   0.020
  113       -0.000   0.000   0.004   0.004
  114       -0.000   0.000   0.004   0.004
  115        0.001   0.001   0.069   0.071
  116        0.004   0.003   0.072   0.079
  117       -0.003   0.015   0.507   0.519
  118        0.000   0.000   0.020   0.020
  119        0.013   0.000   0.149   0.162
  120        0.001   0.000   0.042   0.044
  121        0.004   0.000   0.126   0.129
  122        0.004   0.000   0.126   0.129
  123        0.000   0.000   0.020   0.020
  124        0.001   0.000   0.042   0.044
  125        0.001   0.001   0.069   0.071
  126       -0.000   0.000   0.004   0.004
  127        0.004   0.003   0.072   0.079
  128       -0.003   0.015   0.507   0.519
--------------------------------------------------
tot          0.283   2.362   7.918  10.563
 

 total amount of memory used by VASP MPI-rank0 19696918. kBytes
=======================================================================

   base      :      30000. kBytes
   nonlr-proj:      75600. kBytes
   fftplans  :    2158016. kBytes
   grid      :    1331281. kBytes
   one-center:       3981. kBytes
   wavefun   :   16098040. kBytes
 
  
  
 General timing and accounting informations for this job:
 ========================================================
  
                  Total CPU time used (sec):    25247.824
                            User time (sec):    24117.251
                          System time (sec):     1130.573
                         Elapsed time (sec):    18608.071
  
                   Maximum memory used (kb):    22787812.
                   Average memory used (kb):          N/A
  
                          Minor page faults:    493595834
                          Major page faults:          594
                 Voluntary context switches:      1134009
