       N       E                     dE             d eps       ncg     rms          rms(c)
DAV:   1     0.778986102062E+03    0.77899E+03   -0.40015E+04 13824   0.194E+03
DAV:   2     0.732615534773E+01   -0.77166E+03   -0.74398E+03 14072   0.576E+02
DAV:   3    -0.213823243460E+02   -0.28708E+02   -0.28028E+02 14936   0.116E+02
DAV:   4    -0.216937390952E+02   -0.31141E+00   -0.31129E+00 14472   0.128E+01
DAV:   5    -0.216988059487E+02   -0.50669E-02   -0.50668E-02 14904   0.160E+00    0.108E+01
DAV:   6    -0.208298025613E+02    0.86900E+00   -0.37542E+00 14472   0.137E+01    0.229E+00
DAV:   7    -0.208289045557E+02    0.89801E-03   -0.39096E-02 14408   0.146E+00    0.152E+00
DAV:   8    -0.208273643561E+02    0.15402E-02   -0.45228E-03 14808   0.548E-01    0.836E-01
DAV:   9    -0.208278787546E+02   -0.51440E-03   -0.25824E-03 14256   0.423E-01    0.864E-02
DAV:  10    -0.208281272950E+02   -0.24854E-03   -0.29535E-04 15152   0.130E-01    0.842E-02
DAV:  11    -0.208281778013E+02   -0.50506E-04   -0.27047E-05 14640   0.333E-02    0.680E-02
DAV:  12    -0.208282440702E+02   -0.66269E-04   -0.15274E-04 14144   0.695E-02    0.866E-03
DAV:  13    -0.208282500860E+02   -0.60158E-05   -0.42072E-06 12528   0.154E-02    0.583E-03
DAV:  14    -0.208282513550E+02   -0.12689E-05   -0.60369E-07  7480   0.569E-03    0.265E-03
DAV:  15    -0.208282528640E+02   -0.15091E-05   -0.29094E-07  7416   0.351E-03    0.123E-03
DAV:  16    -0.208282530241E+02   -0.16009E-06   -0.49224E-08  7256   0.167E-03
   1 F= -.23449178E+02 E0= -.23449136E+02  d E =-.127658E-03  mag=     0.9583
