 vasp.6.4.3 19Mar24 (build Nov 27 2025 15:18:09) complex                         
 executed on              LinuxNV date 2026.06.04  16:33:42
 running    4 mpi-ranks, with    1 threads/rank, on    1 nodes
 distrk:  each k-point on    4 cores,    1 groups
 distr:  one band on NCORE=   1 cores,    4 groups
 OpenACC runtime initialized ...    0 GPUs detected


--------------------------------------------------------------------------------------------------------


 INCAR:
   SYSTEM = pddmc
   ENCUT = 520
   PREC = Accurate
   LASPH = .TRUE.
   ADDGRID = .TRUE.
   ISPIN = 2
   IVDW = 12
   EDIFF = 1e-06
   NELM = 200
   NELMIN = 5
   ALGO = Normal
   NCORE = 1
   LREAL = .FALSE.
   LWAVE = .FALSE.
   LCHARG = .FALSE.
   LORBIT = 11
   ISYM = 2
   IBRION = -1
   NSW = 0
   ISIF = 0
   ISMEAR = 1
   SIGMA = 0.1
   EDIFFG = -0.01

 POTCAR:    PAW_PBE Pd_pv 28Jan2005               
 -----------------------------------------------------------------------------
|                                                                             |
|           W    W    AA    RRRRR   N    N  II  N    N   GGGG   !!!           |
|           W    W   A  A   R    R  NN   N  II  NN   N  G    G  !!!           |
|           W    W  A    A  R    R  N N  N  II  N N  N  G       !!!           |
|           W WW W  AAAAAA  RRRRR   N  N N  II  N  N N  G  GGG   !            |
|           WW  WW  A    A  R   R   N   NN  II  N   NN  G    G                |
|           W    W  A    A  R    R  N    N  II  N    N   GGGG   !!!           |
|                                                                             |
|     You use a magnetic or noncollinear calculation, but did not specify     |
|     the initial magnetic moment with the MAGMOM tag. Note that a            |
|     default of 1 will be used for all atoms. This ferromagnetic setup       |
|     may break the symmetry of the crystal, in particular it may rule        |
|     out finding an antiferromagnetic solution. Thence, we recommend         |
|     setting the initial magnetic moment manually or verifying carefully     |
|     that this magnetic setup is desired.                                    |
|                                                                             |
 -----------------------------------------------------------------------------

 POTCAR:    PAW_PBE Pd_pv 28Jan2005               
   SHA256 =  3ce661545bbde58da9a95410dea32907db2844916708bcd35bbe03ee66324d7f Pd_pv/POTCAR          
   COPYR  = (c) Copyright 28Jan2005 Georg Kresse                                                    
   COPYR  = This file is part of the software VASP. Any use, copying, and all other rights are regul
   COPYR  = If you do not have a valid VASP license, you may not use, copy or distribute this file. 
   VRHFIN =Pd: 4p5s4d                                                                               
   LEXCH  = PE                                                                                      
   EATOM  =  2621.5550 eV,  192.6789 Ry                                                             
                                                                                                    
   TITEL  = PAW_PBE Pd_pv 28Jan2005                                                                 
   LULTRA =        F    use ultrasoft PP ?                                                          
   IUNSCR =        1    unscreen: 0-lin 1-nonlin 2-no                                               
   RPACOR =    2.250    partial core radius                                                         
   POMASS =  106.420; ZVAL   =   16.000    mass and valenz                                          
   RCORE  =    2.400    outmost cutoff radius                                                       
   RWIGS  =    2.300; RWIGS  =    1.217    wigner-seitz radius (au A)                               
   ENMAX  =  250.925; ENMIN  =  188.194 eV                                                          
   ICORE  =        3    local potential                                                             
   LCOR   =        T    correct aug charges                                                         
   LPAW   =        T    paw PP                                                                      
   EAUG   =  473.067                                                                                
   DEXC   =    0.000                                                                                
   RMAX   =    2.449    core radius for proj-oper                                                   
   RAUG   =    1.300    factor for augmentation sphere                                              
   RDEP   =    2.405    radius for radial grids                                                     
   RDEPT  =    1.966    core radius for aug-charge                                                  
                                                                                                    
   Atomic configuration                                                                             
   11 entries                                                                                       
     n  l   j            E        occ.                                                              
     1  0  0.50    -24164.6632   2.0000                                                             
     2  0  0.50     -3530.9218   2.0000                                                             
     2  1  1.50     -3165.6822   6.0000                                                             
     3  0  0.50      -639.4578   2.0000                                                             
     3  1  1.50      -519.4532   6.0000                                                             
     3  2  2.50      -328.9758  10.0000                                                             
     4  0  0.50       -88.7014   2.0000                                                             
     4  1  1.50       -54.4541   6.0000                                                             
     4  2  2.50        -6.6878   9.0000                                                             
     5  0  0.50        -4.3543   1.0000                                                             
     4  3  2.50        -1.3606   0.0000                                                             
   Description                                                                                      
     l       E           TYP  RCUT    TYP  RCUT                                                     
     1    -54.4540524     23  2.100                                                                 
     1      4.0817478     23  2.100                                                                 
     2     -6.6878326     23  2.400                                                                 
     2     -4.0817478     23  2.400                                                                 
     0     -4.3542962     23  2.400                                                                 
     0     13.6058260     23  2.400                                                                 
     3     -5.4423304     23  2.400                                                                 
  local pseudopotential read in
  partial core-charges read in
  partial kinetic energy density read in
  atomic valenz-charges read in
  non local Contribution for L=            1  read in
    real space projection operators read in
  non local Contribution for L=            1  read in
    real space projection operators read in
  non local Contribution for L=            2  read in
    real space projection operators read in
  non local Contribution for L=            2  read in
    real space projection operators read in
  non local Contribution for L=            0  read in
    real space projection operators read in
  non local Contribution for L=            0  read in
    real space projection operators read in
    PAW grid and wavefunctions read in
 
   number of l-projection  operators is LMAX  =            6
   number of lm-projection operators is LMMAX =           18
 
  PAW_PBE Pd_pv 28Jan2005               :
 energy of atom  1       EATOM=-2621.5550
 kinetic energy error for atom=    0.0088 (will be added to EATOM!!)
 
 
 POSCAR: Pd
  positions in cartesian coordinates
  No initial velocities read in
 IVDW         = 12
 VDW_S6       =    1.0000
 VDW_S8       =    0.7875
 VDW_A1       =    0.4289
 VDW_A2       =    4.4407
 VDW_RADIUS   =   50.2022 A
 VDW_CNRADIUS =   21.1671 A


 exchange-correlation table for PE
   RHO(1)=    0.500       N(1)  =     2000
   RHO(2)=  100.500       N(2)  =     4000
 


--------------------------------------------------------------------------------------------------------


 ion  position               nearest neighbor table
   1  0.000  0.000  0.000-   2 2.77   3 2.77   2 2.77   3 2.77   2 2.77   4 2.77   2 2.77   3 2.77
                             4 2.77   3 2.77   4 2.77   4 2.77
   2  0.000  0.500  0.500-   1 2.77   4 2.77   1 2.77   4 2.77   1 2.77   3 2.77   1 2.77   3 2.77
                             4 2.77   4 2.77   3 2.77   3 2.77
   3  0.500  0.000  0.500-   1 2.77   4 2.77   1 2.77   4 2.77   2 2.77   4 2.77   4 2.77   1 2.77
                             2 2.77   1 2.77   2 2.77   2 2.77
   4  0.500  0.500  0.000-   2 2.77   3 2.77   2 2.77   3 2.77   1 2.77   3 2.77   3 2.77   1 2.77
                             2 2.77   2 2.77   1 2.77   1 2.77
 
  LATTYP: Found a simple cubic cell.
 ALAT       =     3.9173015750
  
  Lattice vectors:
  
 A1 = (   3.9173015750,   0.0000000000,   0.0000000000)
 A2 = (   0.0000000000,   3.9173015750,   0.0000000000)
 A3 = (   0.0000000000,   0.0000000000,   3.9173015750)


Analysis of symmetry for initial positions (statically):
=====================================================================
 Subroutine PRICEL returns following result:
 
  LATTYP: Found a face centered cubic cell.
 ALAT       =     3.9173015750
  
  Lattice vectors:
  
 A1 = (   1.9586507875,  -1.9586507875,   0.0000000000)
 A2 = (   1.9586507875,   0.0000000000,   1.9586507875)
 A3 = (   0.0000000000,  -1.9586507875,   1.9586507875)
 
   4 primitive cells build up your supercell.
 

 Routine SETGRP: Setting up the symmetry group for a 
 simple cubic supercell.


 Subroutine GETGRP returns: Found 48 space group operations
 (whereof 48 operations were pure point group operations)
 out of a pool of 48 trial point group operations.


The static configuration has the point symmetry O_h .


Analysis of symmetry for dynamics (positions and initial velocities):
=====================================================================
 Subroutine PRICEL returns following result:
 
  LATTYP: Found a face centered cubic cell.
 ALAT       =     3.9173015750
  
  Lattice vectors:
  
 A1 = (   1.9586507875,  -1.9586507875,   0.0000000000)
 A2 = (   1.9586507875,   0.0000000000,   1.9586507875)
 A3 = (   0.0000000000,  -1.9586507875,   1.9586507875)
 
   4 primitive cells build up your supercell.
 

 Routine SETGRP: Setting up the symmetry group for a 
 simple cubic supercell.


 Subroutine GETGRP returns: Found 48 space group operations
 (whereof 48 operations were pure point group operations)
 out of a pool of 48 trial point group operations.


The dynamic configuration has the point symmetry O_h .


Analysis of structural, dynamic, and magnetic symmetry:
=====================================================================
 Subroutine PRICEL returns following result:
 
  LATTYP: Found a face centered cubic cell.
 ALAT       =     3.9173015750
  
  Lattice vectors:
  
 A1 = (   1.9586507875,  -1.9586507875,   0.0000000000)
 A2 = (   1.9586507875,   0.0000000000,   1.9586507875)
 A3 = (   0.0000000000,  -1.9586507875,   1.9586507875)
 
   4 primitive cells build up your supercell.
 

 Routine SETGRP: Setting up the symmetry group for a 
 simple cubic supercell.


 Subroutine GETGRP returns: Found 48 space group operations
 (whereof 48 operations were pure point group operations)
 out of a pool of 48 trial point group operations.


The overall configuration has the point symmetry O_h .


 Subroutine INISYM returns: Found 48 space group operations
 (whereof 48 operations are pure point group operations),
 and found     4 'primitive' translations


----------------------------------------------------------------------------------------

                                     Primitive cell                                     

  volume of cell :      15.0280

  direct lattice vectors                    reciprocal lattice vectors
     1.958650787 -1.958650787  0.000000000     0.255277767 -0.255277767 -0.255277767
     1.958650787  0.000000000  1.958650787     0.255277767  0.255277767  0.255277767
     0.000000000 -1.958650787  1.958650787    -0.255277767 -0.255277767  0.255277767

  length of vectors
     2.769950508  2.769950508  2.769950508     0.442154063  0.442154063  0.442154063

  position of ions in fractional coordinates (direct lattice)
     0.000000000  0.000000000  0.000000000

  ion indices of the primitive-cell ions
   primitive index   ion index
                 1           1

----------------------------------------------------------------------------------------

 
 
 KPOINTS: Automatic mesh                          

Automatic generation of k-mesh.
 Grid dimensions read from file:
 generate k-points for:   12   12   12

 Generating k-lattice:

  Cartesian coordinates                     Fractional coordinates (reciprocal lattice)
     0.021273147 -0.000000000  0.000000000     0.083333333 -0.000000000  0.000000000
     0.000000000  0.021273147  0.000000000     0.000000000  0.083333333  0.000000000
    -0.000000000 -0.000000000  0.021273147     0.000000000  0.000000000  0.083333333

  Length of vectors
     0.021273147  0.021273147  0.021273147

  Shift w.r.t. Gamma in fractional coordinates (k-lattice)
     0.000000000  0.000000000  0.000000000

 
 Subroutine IBZKPT returns following result:
 ===========================================
 
 Found     84 irreducible k-points:
 
 Following reciprocal coordinates:
            Coordinates               Weight
  0.000000  0.000000  0.000000      1.000000
  0.083333  0.000000  0.000000      6.000000
  0.166667  0.000000  0.000000      6.000000
  0.250000  0.000000  0.000000      6.000000
  0.333333  0.000000  0.000000      6.000000
  0.416667  0.000000  0.000000      6.000000
  0.500000  0.000000  0.000000      3.000000
  0.083333  0.083333  0.000000     12.000000
  0.166667  0.083333  0.000000     24.000000
  0.250000  0.083333  0.000000     24.000000
  0.333333  0.083333  0.000000     24.000000
  0.416667  0.083333  0.000000     24.000000
  0.500000  0.083333  0.000000     12.000000
  0.166667  0.166667  0.000000     12.000000
  0.250000  0.166667  0.000000     24.000000
  0.333333  0.166667  0.000000     24.000000
  0.416667  0.166667  0.000000     24.000000
  0.500000  0.166667  0.000000     12.000000
  0.250000  0.250000  0.000000     12.000000
  0.333333  0.250000  0.000000     24.000000
  0.416667  0.250000  0.000000     24.000000
  0.500000  0.250000  0.000000     12.000000
  0.333333  0.333333  0.000000     12.000000
  0.416667  0.333333  0.000000     24.000000
  0.500000  0.333333  0.000000     12.000000
  0.416667  0.416667  0.000000     12.000000
  0.500000  0.416667  0.000000     12.000000
  0.500000  0.500000  0.000000      3.000000
  0.083333  0.083333  0.083333      8.000000
  0.166667  0.083333  0.083333     24.000000
  0.250000  0.083333  0.083333     24.000000
  0.333333  0.083333  0.083333     24.000000
  0.416667  0.083333  0.083333     24.000000
  0.500000  0.083333  0.083333     12.000000
  0.166667  0.166667  0.083333     24.000000
  0.250000  0.166667  0.083333     48.000000
  0.333333  0.166667  0.083333     48.000000
  0.416667  0.166667  0.083333     48.000000
  0.500000  0.166667  0.083333     24.000000
  0.250000  0.250000  0.083333     24.000000
  0.333333  0.250000  0.083333     48.000000
  0.416667  0.250000  0.083333     48.000000
  0.500000  0.250000  0.083333     24.000000
  0.333333  0.333333  0.083333     24.000000
  0.416667  0.333333  0.083333     48.000000
  0.500000  0.333333  0.083333     24.000000
  0.416667  0.416667  0.083333     24.000000
  0.500000  0.416667  0.083333     24.000000
  0.500000  0.500000  0.083333      6.000000
  0.166667  0.166667  0.166667      8.000000
  0.250000  0.166667  0.166667     24.000000
  0.333333  0.166667  0.166667     24.000000
  0.416667  0.166667  0.166667     24.000000
  0.500000  0.166667  0.166667     12.000000
  0.250000  0.250000  0.166667     24.000000
  0.333333  0.250000  0.166667     48.000000
  0.416667  0.250000  0.166667     48.000000
  0.500000  0.250000  0.166667     24.000000
  0.333333  0.333333  0.166667     24.000000
  0.416667  0.333333  0.166667     48.000000
  0.500000  0.333333  0.166667     24.000000
  0.416667  0.416667  0.166667     24.000000
  0.500000  0.416667  0.166667     24.000000
  0.500000  0.500000  0.166667      6.000000
  0.250000  0.250000  0.250000      8.000000
  0.333333  0.250000  0.250000     24.000000
  0.416667  0.250000  0.250000     24.000000
  0.500000  0.250000  0.250000     12.000000
  0.333333  0.333333  0.250000     24.000000
  0.416667  0.333333  0.250000     48.000000
  0.500000  0.333333  0.250000     24.000000
  0.416667  0.416667  0.250000     24.000000
  0.500000  0.416667  0.250000     24.000000
  0.500000  0.500000  0.250000      6.000000
  0.333333  0.333333  0.333333      8.000000
  0.416667  0.333333  0.333333     24.000000
  0.500000  0.333333  0.333333     12.000000
  0.416667  0.416667  0.333333     24.000000
  0.500000  0.416667  0.333333     24.000000
  0.500000  0.500000  0.333333      6.000000
  0.416667  0.416667  0.416667      8.000000
  0.500000  0.416667  0.416667     12.000000
  0.500000  0.500000  0.416667      6.000000
  0.500000  0.500000  0.500000      1.000000
 
 Following cartesian coordinates:
            Coordinates               Weight
  0.000000  0.000000  0.000000      1.000000
  0.021273  0.000000  0.000000      6.000000
  0.042546  0.000000  0.000000      6.000000
  0.063819  0.000000  0.000000      6.000000
  0.085093  0.000000  0.000000      6.000000
  0.106366  0.000000  0.000000      6.000000
  0.127639  0.000000  0.000000      3.000000
  0.021273  0.021273  0.000000     12.000000
  0.042546  0.021273  0.000000     24.000000
  0.063819  0.021273  0.000000     24.000000
  0.085093  0.021273  0.000000     24.000000
  0.106366  0.021273  0.000000     24.000000
  0.127639  0.021273  0.000000     12.000000
  0.042546  0.042546  0.000000     12.000000
  0.063819  0.042546  0.000000     24.000000
  0.085093  0.042546  0.000000     24.000000
  0.106366  0.042546  0.000000     24.000000
  0.127639  0.042546  0.000000     12.000000
  0.063819  0.063819  0.000000     12.000000
  0.085093  0.063819  0.000000     24.000000
  0.106366  0.063819  0.000000     24.000000
  0.127639  0.063819  0.000000     12.000000
  0.085093  0.085093  0.000000     12.000000
  0.106366  0.085093  0.000000     24.000000
  0.127639  0.085093  0.000000     12.000000
  0.106366  0.106366  0.000000     12.000000
  0.127639  0.106366  0.000000     12.000000
  0.127639  0.127639  0.000000      3.000000
  0.021273  0.021273  0.021273      8.000000
  0.042546  0.021273  0.021273     24.000000
  0.063819  0.021273  0.021273     24.000000
  0.085093  0.021273  0.021273     24.000000
  0.106366  0.021273  0.021273     24.000000
  0.127639  0.021273  0.021273     12.000000
  0.042546  0.042546  0.021273     24.000000
  0.063819  0.042546  0.021273     48.000000
  0.085093  0.042546  0.021273     48.000000
  0.106366  0.042546  0.021273     48.000000
  0.127639  0.042546  0.021273     24.000000
  0.063819  0.063819  0.021273     24.000000
  0.085093  0.063819  0.021273     48.000000
  0.106366  0.063819  0.021273     48.000000
  0.127639  0.063819  0.021273     24.000000
  0.085093  0.085093  0.021273     24.000000
  0.106366  0.085093  0.021273     48.000000
  0.127639  0.085093  0.021273     24.000000
  0.106366  0.106366  0.021273     24.000000
  0.127639  0.106366  0.021273     24.000000
  0.127639  0.127639  0.021273      6.000000
  0.042546  0.042546  0.042546      8.000000
  0.063819  0.042546  0.042546     24.000000
  0.085093  0.042546  0.042546     24.000000
  0.106366  0.042546  0.042546     24.000000
  0.127639  0.042546  0.042546     12.000000
  0.063819  0.063819  0.042546     24.000000
  0.085093  0.063819  0.042546     48.000000
  0.106366  0.063819  0.042546     48.000000
  0.127639  0.063819  0.042546     24.000000
  0.085093  0.085093  0.042546     24.000000
  0.106366  0.085093  0.042546     48.000000
  0.127639  0.085093  0.042546     24.000000
  0.106366  0.106366  0.042546     24.000000
  0.127639  0.106366  0.042546     24.000000
  0.127639  0.127639  0.042546      6.000000
  0.063819  0.063819  0.063819      8.000000
  0.085093  0.063819  0.063819     24.000000
  0.106366  0.063819  0.063819     24.000000
  0.127639  0.063819  0.063819     12.000000
  0.085093  0.085093  0.063819     24.000000
  0.106366  0.085093  0.063819     48.000000
  0.127639  0.085093  0.063819     24.000000
  0.106366  0.106366  0.063819     24.000000
  0.127639  0.106366  0.063819     24.000000
  0.127639  0.127639  0.063819      6.000000
  0.085093  0.085093  0.085093      8.000000
  0.106366  0.085093  0.085093     24.000000
  0.127639  0.085093  0.085093     12.000000
  0.106366  0.106366  0.085093     24.000000
  0.127639  0.106366  0.085093     24.000000
  0.127639  0.127639  0.085093      6.000000
  0.106366  0.106366  0.106366      8.000000
  0.127639  0.106366  0.106366     12.000000
  0.127639  0.127639  0.106366      6.000000
  0.127639  0.127639  0.127639      1.000000
 


--------------------------------------------------------------------------------------------------------




 Dimension of arrays:
   k-points           NKPTS =     84   k-points in BZ     NKDIM =     84   number of bands    NBANDS=     40
   number of dos      NEDOS =    301   number of ions     NIONS =      4
   non local maximal  LDIM  =      6   non local SUM 2l+1 LMDIM =     18
   total plane-waves  NPLWV =  27000
   max r-space proj   IRMAX =      1   max aug-charges    IRDMAX= 144038
   dimension x,y,z NGX =    30 NGY =   30 NGZ =   30
   dimension x,y,z NGXF=    60 NGYF=   60 NGZF=   60
   support grid    NGXF=   120 NGYF=  120 NGZF=  120
   ions per type =               4
   NGX,Y,Z   is equivalent  to a cutoff of  12.73, 12.73, 12.73 a.u.
   NGXF,Y,Z  is equivalent  to a cutoff of  25.46, 25.46, 25.46 a.u.

 SYSTEM =  pddmc                                   
 POSCAR =  Pd                                      

 Startparameter for this run:
   NWRITE =      2    write-flag & timer
   PREC   = accura    normal or accurate (medium, high low for compatibility)
   ISTART =      0    job   : 0-new  1-cont  2-samecut
   ICHARG =      2    charge: 1-file 2-atom 10-const
   ISPIN  =      2    spin polarized calculation?
   LNONCOLLINEAR =      F non collinear calculations
   LSORBIT =      F    spin-orbit coupling
   INIWAV =      1    electr: 0-lowe 1-rand  2-diag
   LASPH  =      T    aspherical Exc in radial PAW
 Electronic Relaxation 1
   ENCUT  =  520.0 eV  38.22 Ry    6.18 a.u.   7.28  7.28  7.28*2*pi/ulx,y,z
   ENINI  =  520.0     initial cutoff
   ENAUG  =  473.1 eV  augmentation charge cutoff
   NELM   =    200;   NELMIN=  5; NELMDL= -5     # of ELM steps 
   EDIFF  = 0.1E-05   stopping-criterion for ELM
   LREAL  =      F    real-space projection
   NLSPLINE    = F    spline interpolate recip. space projectors
   LCOMPAT=      F    compatible to vasp.4.4
   GGA_COMPAT  = T    GGA compatible to vasp.4.4-vasp.4.6
   LMAXPAW     = -100 max onsite density
   LMAXMIX     =    2 max onsite mixed and CHGCAR
   VOSKOWN=      0    Vosko Wilk Nusair interpolation
   ROPT   =    0.00000
 Ionic relaxation
   EDIFFG = -.1E-01   stopping-criterion for IOM
   NSW    =      0    number of steps for IOM
   NBLOCK =      1;   KBLOCK =      1    inner block; outer block 
   IBRION =     -1    ionic relax: 0-MD 1-quasi-New 2-CG
   NFREE  =      0    steps in history (QN), initial steepest desc. (CG)
   ISIF   =      0    stress and relaxation
   IWAVPR =     10    prediction:  0-non 1-charg 2-wave 3-comb
   ISYM   =      2    0-nonsym 1-usesym 2-fastsym
   LCORR  =      T    Harris-Foulkes like correction to forces

   POTIM  = 0.5000    time-step for ionic-motion
   TEIN   =    0.0    initial temperature
   TEBEG  =    0.0;   TEEND  =   0.0 temperature during run
   SMASS  =  -3.00    Nose mass-parameter (am)
   estimated Nose-frequenzy (Omega)   =  0.10E-29 period in steps = 0.13E+47 mass=  -0.351E-27a.u.
   SCALEE = 1.0000    scale energy and forces
   NPACO  =    256;   APACO  = 10.0  distance and # of slots for P.C.
   PSTRESS=    0.0 pullay stress

  Mass of Ions in am
   POMASS = 106.42
  Ionic Valenz
   ZVAL   =  16.00
  Atomic Wigner-Seitz radii
   RWIGS  =  -1.00
  virtual crystal weights 
   VCA    =   1.00
   NELECT =      64.0000    total number of electrons
   NUPDOWN=      -1.0000    fix difference up-down

 DOS related values:
   EMIN   =  10.00;   EMAX   =-10.00  energy-range for DOS
   EFERMI =   0.00;   METHOD = LEGACY      
   ISMEAR =     1;   SIGMA  =   0.10  broadening in eV -4-tet -1-fermi 0-gaus

 Electronic relaxation 2 (details)
   IALGO  =     38    algorithm
   LDIAG  =      T    sub-space diagonalisation (order eigenvalues)
   LSUBROT=      F    optimize rotation matrix (better conditioning)
   TURBO    =      0    0=normal 1=particle mesh
   IRESTART =      0    0=no restart 2=restart with 2 vectors
   NREBOOT  =      0    no. of reboots
   NMIN     =      0    reboot dimension
   EREF     =   0.00    reference energy to select bands
   IMIX   =      4    mixing-type and parameters
     AMIX     =   0.40;   BMIX     =  1.00
     AMIX_MAG =   1.60;   BMIX_MAG =  1.00
     AMIN     =   0.10
     WC   =   100.;   INIMIX=   1;  MIXPRE=   1;  MAXMIX= -45

 Intra band minimization:
   WEIMIN = 0.0000     energy-eigenvalue tresh-hold
   EBREAK =  0.62E-08  absolut break condition
   DEPER  =   0.30     relativ break condition  

   TIME   =   0.40     timestep for ELM

  volume/ion in A,a.u.               =      15.03       101.41
  Fermi-wavevector in a.u.,A,eV,Ry     =   1.671659  3.158978 38.020738  2.794445
  Thomas-Fermi vector in A             =   2.756943
 
 Write flags
   LWAVE        =      F    write WAVECAR
   LDOWNSAMPLE  =      F    k-point downsampling of WAVECAR
   LCHARG       =      F    write CHGCAR
   LVTOT        =      F    write LOCPOT, total local potential
   LVHAR        =      F    write LOCPOT, Hartree potential only
   WRT_POTENTIAL= false  ! write potential to hdf5 file
   LELF         =      F    write electronic localiz. function (ELF)
   LORBIT       =     11    0 simple, 1 ext, 2 COOP (PROOUT), +10 PAW based schemes


 Dipole corrections
   LMONO      =      F    monopole corrections only (constant potential shift)
   LDIPOL     =      F    correct potential (dipole corrections)
   IDIPOL     =      0    1-x, 2-y, 3-z, 4-all directions 
   EPSILON    =  1.0000000 bulk dielectric constant
   LVACPOTAV  =      F  vacuum potentials using an averaging scheme for the charge density
   VACPOTFLAT =  0.1000000 required flatness to determine vacuum potential
 Exchange correlation treatment:
   GGA     = PE    functional components
   XC_C    = 1    coefficients multiplying the functional components
   LIBXC   =     F    Libxc                    
   VOSKOWN =     0    Vosko Wilk Nusair interpolation
   LHFCALC =     F    Hartree Fock is set to
   LHFONE  =     F    Hartree Fock one center treatment
   AEXX    =    0.0000 exact exchange contribution

 Parameters of functionals:
   PE:
     No parameter
 
 Van der Waals corrections
   IVDW    =    12    specifies the selected vdW correction

 Linear response parameters
   LEPSILON=     F    determine dielectric tensor
   LRPA    =     F    only Hartree local field effects (RPA)
   LNABLA  =     F    use nabla operator in PAW spheres
   LVEL    =     F    velocity operator in full k-point grid
   CSHIFT  =0.1000    complex shift for real part using Kramers Kronig
   OMEGAMAX=  -1.0    maximum frequency
   DEG_THRESHOLD= 0.2000000E-02 threshold for treating states as degnerate
   RTIME   =   -0.100 relaxation time in fs
  (WPLASMAI=    0.000 imaginary part of plasma frequency in eV, 0.658/RTIME)
   DFIELD  = 0.0000000 0.0000000 0.0000000 field for delta impulse in time
 
  Optional k-point grid parameters
   LKPOINTS_OPT  =     F    use optional k-point grid
   KPOINTS_OPT_MODE=     1    mode for optional k-point grid
 
 Orbital magnetization related:
   ORBITALMAG=     F  switch on orbital magnetization
   LCHIMAG   =     F  perturbation theory with respect to B field
   DQ        =  0.001000  dq finite difference perturbation B field
   LLRAUG    =     F  two centre corrections for induced B field
   LBONE     =     F  B-component reconstruction in AE one-centre
   LVGVCALC  =     T  calculate vGv susceptibility
   LVGVAPPL  =     F  apply vGv susceptibility instead of pGv for G=0

 Random number generation:
   RANDOM_GENERATOR = DEFAULT
   PCG_SEED         = not used


--------------------------------------------------------------------------------------------------------


 Static calculation
 charge density and potential will be updated during run
 spin polarized calculation
 Variant of blocked Davidson
 Davidson routine will perform the subspace rotation
 perform sub-space diagonalisation
    after iterative eigenvector-optimisation
 modified Broyden-mixing scheme, WC =      100.0
 initial mixing is a Kerker type mixing with AMIX =  0.4000 and BMIX =      1.0000
 Hartree-type preconditioning will be used
 using additional bands             8
 reciprocal scheme for non local part
 use partial core corrections
 calculate Harris-corrections to forces 
   (improved forces if not selfconsistent)
 use gradient corrections 
 use of overlap-Matrix (Vanderbilt PP)
 Methfessel and Paxton  Order N= 1 SIGMA  =   0.10


--------------------------------------------------------------------------------------------------------


  energy-cutoff  :      520.00
  volume of cell :       60.11
      direct lattice vectors                 reciprocal lattice vectors
     3.917301575  0.000000000  0.000000000     0.255277767 -0.000000000  0.000000000
     0.000000000  3.917301575  0.000000000     0.000000000  0.255277767  0.000000000
     0.000000000  0.000000000  3.917301575    -0.000000000 -0.000000000  0.255277767

  length of vectors
     3.917301575  3.917301575  3.917301575     0.255277767  0.255277767  0.255277767


 
 k-points in units of 2pi/SCALE and weight: Automatic mesh                          
   0.00000000  0.00000000  0.00000000       0.001
   0.02127315  0.00000000  0.00000000       0.003
   0.04254629  0.00000000  0.00000000       0.003
   0.06381944  0.00000000  0.00000000       0.003
   0.08509259  0.00000000  0.00000000       0.003
   0.10636574  0.00000000  0.00000000       0.003
   0.12763888  0.00000000  0.00000000       0.002
   0.02127315  0.02127315  0.00000000       0.007
   0.04254629  0.02127315  0.00000000       0.014
   0.06381944  0.02127315  0.00000000       0.014
   0.08509259  0.02127315  0.00000000       0.014
   0.10636574  0.02127315  0.00000000       0.014
   0.12763888  0.02127315  0.00000000       0.007
   0.04254629  0.04254629  0.00000000       0.007
   0.06381944  0.04254629  0.00000000       0.014
   0.08509259  0.04254629  0.00000000       0.014
   0.10636574  0.04254629  0.00000000       0.014
   0.12763888  0.04254629  0.00000000       0.007
   0.06381944  0.06381944  0.00000000       0.007
   0.08509259  0.06381944  0.00000000       0.014
   0.10636574  0.06381944  0.00000000       0.014
   0.12763888  0.06381944  0.00000000       0.007
   0.08509259  0.08509259  0.00000000       0.007
   0.10636574  0.08509259  0.00000000       0.014
   0.12763888  0.08509259  0.00000000       0.007
   0.10636574  0.10636574  0.00000000       0.007
   0.12763888  0.10636574  0.00000000       0.007
   0.12763888  0.12763888  0.00000000       0.002
   0.02127315  0.02127315  0.02127315       0.005
   0.04254629  0.02127315  0.02127315       0.014
   0.06381944  0.02127315  0.02127315       0.014
   0.08509259  0.02127315  0.02127315       0.014
   0.10636574  0.02127315  0.02127315       0.014
   0.12763888  0.02127315  0.02127315       0.007
   0.04254629  0.04254629  0.02127315       0.014
   0.06381944  0.04254629  0.02127315       0.028
   0.08509259  0.04254629  0.02127315       0.028
   0.10636574  0.04254629  0.02127315       0.028
   0.12763888  0.04254629  0.02127315       0.014
   0.06381944  0.06381944  0.02127315       0.014
   0.08509259  0.06381944  0.02127315       0.028
   0.10636574  0.06381944  0.02127315       0.028
   0.12763888  0.06381944  0.02127315       0.014
   0.08509259  0.08509259  0.02127315       0.014
   0.10636574  0.08509259  0.02127315       0.028
   0.12763888  0.08509259  0.02127315       0.014
   0.10636574  0.10636574  0.02127315       0.014
   0.12763888  0.10636574  0.02127315       0.014
   0.12763888  0.12763888  0.02127315       0.003
   0.04254629  0.04254629  0.04254629       0.005
   0.06381944  0.04254629  0.04254629       0.014
   0.08509259  0.04254629  0.04254629       0.014
   0.10636574  0.04254629  0.04254629       0.014
   0.12763888  0.04254629  0.04254629       0.007
   0.06381944  0.06381944  0.04254629       0.014
   0.08509259  0.06381944  0.04254629       0.028
   0.10636574  0.06381944  0.04254629       0.028
   0.12763888  0.06381944  0.04254629       0.014
   0.08509259  0.08509259  0.04254629       0.014
   0.10636574  0.08509259  0.04254629       0.028
   0.12763888  0.08509259  0.04254629       0.014
   0.10636574  0.10636574  0.04254629       0.014
   0.12763888  0.10636574  0.04254629       0.014
   0.12763888  0.12763888  0.04254629       0.003
   0.06381944  0.06381944  0.06381944       0.005
   0.08509259  0.06381944  0.06381944       0.014
   0.10636574  0.06381944  0.06381944       0.014
   0.12763888  0.06381944  0.06381944       0.007
   0.08509259  0.08509259  0.06381944       0.014
   0.10636574  0.08509259  0.06381944       0.028
   0.12763888  0.08509259  0.06381944       0.014
   0.10636574  0.10636574  0.06381944       0.014
   0.12763888  0.10636574  0.06381944       0.014
   0.12763888  0.12763888  0.06381944       0.003
   0.08509259  0.08509259  0.08509259       0.005
   0.10636574  0.08509259  0.08509259       0.014
   0.12763888  0.08509259  0.08509259       0.007
   0.10636574  0.10636574  0.08509259       0.014
   0.12763888  0.10636574  0.08509259       0.014
   0.12763888  0.12763888  0.08509259       0.003
   0.10636574  0.10636574  0.10636574       0.005
   0.12763888  0.10636574  0.10636574       0.007
   0.12763888  0.12763888  0.10636574       0.003
   0.12763888  0.12763888  0.12763888       0.001
 
 k-points in reciprocal lattice and weights: Automatic mesh                          
   0.00000000  0.00000000  0.00000000       0.001
   0.08333333  0.00000000  0.00000000       0.003
   0.16666667  0.00000000  0.00000000       0.003
   0.25000000  0.00000000  0.00000000       0.003
   0.33333333  0.00000000  0.00000000       0.003
   0.41666667  0.00000000  0.00000000       0.003
   0.50000000  0.00000000  0.00000000       0.002
   0.08333333  0.08333333  0.00000000       0.007
   0.16666667  0.08333333  0.00000000       0.014
   0.25000000  0.08333333  0.00000000       0.014
   0.33333333  0.08333333  0.00000000       0.014
   0.41666667  0.08333333  0.00000000       0.014
   0.50000000  0.08333333  0.00000000       0.007
   0.16666667  0.16666667  0.00000000       0.007
   0.25000000  0.16666667  0.00000000       0.014
   0.33333333  0.16666667  0.00000000       0.014
   0.41666667  0.16666667  0.00000000       0.014
   0.50000000  0.16666667  0.00000000       0.007
   0.25000000  0.25000000  0.00000000       0.007
   0.33333333  0.25000000  0.00000000       0.014
   0.41666667  0.25000000  0.00000000       0.014
   0.50000000  0.25000000  0.00000000       0.007
   0.33333333  0.33333333  0.00000000       0.007
   0.41666667  0.33333333  0.00000000       0.014
   0.50000000  0.33333333  0.00000000       0.007
   0.41666667  0.41666667  0.00000000       0.007
   0.50000000  0.41666667  0.00000000       0.007
   0.50000000  0.50000000  0.00000000       0.002
   0.08333333  0.08333333  0.08333333       0.005
   0.16666667  0.08333333  0.08333333       0.014
   0.25000000  0.08333333  0.08333333       0.014
   0.33333333  0.08333333  0.08333333       0.014
   0.41666667  0.08333333  0.08333333       0.014
   0.50000000  0.08333333  0.08333333       0.007
   0.16666667  0.16666667  0.08333333       0.014
   0.25000000  0.16666667  0.08333333       0.028
   0.33333333  0.16666667  0.08333333       0.028
   0.41666667  0.16666667  0.08333333       0.028
   0.50000000  0.16666667  0.08333333       0.014
   0.25000000  0.25000000  0.08333333       0.014
   0.33333333  0.25000000  0.08333333       0.028
   0.41666667  0.25000000  0.08333333       0.028
   0.50000000  0.25000000  0.08333333       0.014
   0.33333333  0.33333333  0.08333333       0.014
   0.41666667  0.33333333  0.08333333       0.028
   0.50000000  0.33333333  0.08333333       0.014
   0.41666667  0.41666667  0.08333333       0.014
   0.50000000  0.41666667  0.08333333       0.014
   0.50000000  0.50000000  0.08333333       0.003
   0.16666667  0.16666667  0.16666667       0.005
   0.25000000  0.16666667  0.16666667       0.014
   0.33333333  0.16666667  0.16666667       0.014
   0.41666667  0.16666667  0.16666667       0.014
   0.50000000  0.16666667  0.16666667       0.007
   0.25000000  0.25000000  0.16666667       0.014
   0.33333333  0.25000000  0.16666667       0.028
   0.41666667  0.25000000  0.16666667       0.028
   0.50000000  0.25000000  0.16666667       0.014
   0.33333333  0.33333333  0.16666667       0.014
   0.41666667  0.33333333  0.16666667       0.028
   0.50000000  0.33333333  0.16666667       0.014
   0.41666667  0.41666667  0.16666667       0.014
   0.50000000  0.41666667  0.16666667       0.014
   0.50000000  0.50000000  0.16666667       0.003
   0.25000000  0.25000000  0.25000000       0.005
   0.33333333  0.25000000  0.25000000       0.014
   0.41666667  0.25000000  0.25000000       0.014
   0.50000000  0.25000000  0.25000000       0.007
   0.33333333  0.33333333  0.25000000       0.014
   0.41666667  0.33333333  0.25000000       0.028
   0.50000000  0.33333333  0.25000000       0.014
   0.41666667  0.41666667  0.25000000       0.014
   0.50000000  0.41666667  0.25000000       0.014
   0.50000000  0.50000000  0.25000000       0.003
   0.33333333  0.33333333  0.33333333       0.005
   0.41666667  0.33333333  0.33333333       0.014
   0.50000000  0.33333333  0.33333333       0.007
   0.41666667  0.41666667  0.33333333       0.014
   0.50000000  0.41666667  0.33333333       0.014
   0.50000000  0.50000000  0.33333333       0.003
   0.41666667  0.41666667  0.41666667       0.005
   0.50000000  0.41666667  0.41666667       0.007
   0.50000000  0.50000000  0.41666667       0.003
   0.50000000  0.50000000  0.50000000       0.001
 
 position of ions in fractional coordinates (direct lattice) 
   0.00000000  0.00000000  0.00000000
   0.00000000  0.50000000  0.50000000
   0.50000000  0.00000000  0.50000000
   0.50000000  0.50000000  0.00000000
 
 position of ions in cartesian coordinates  (Angst):
   0.00000000  0.00000000  0.00000000
   0.00000000  1.95865079  1.95865079
   1.95865079  0.00000000  1.95865079
   1.95865079  1.95865079  0.00000000
 


--------------------------------------------------------------------------------------------------------


 k-point     1 :   0.0000 0.0000 0.0000  plane waves:    1647
 k-point     2 :   0.0833 0.0000 0.0000  plane waves:    1627
 k-point     3 :   0.1667 0.0000 0.0000  plane waves:    1631
 k-point     4 :   0.2500 0.0000 0.0000  plane waves:    1611
 k-point     5 :   0.3333 0.0000 0.0000  plane waves:    1614
 k-point     6 :   0.4167 0.0000 0.0000  plane waves:    1622
 k-point     7 :   0.5000 0.0000 0.0000  plane waves:    1622
 k-point     8 :   0.0833 0.0833 0.0000  plane waves:    1633
 k-point     9 :   0.1667 0.0833 0.0000  plane waves:    1626
 k-point    10 :   0.2500 0.0833 0.0000  plane waves:    1618
 k-point    11 :   0.3333 0.0833 0.0000  plane waves:    1618
 k-point    12 :   0.4167 0.0833 0.0000  plane waves:    1620
 k-point    13 :   0.5000 0.0833 0.0000  plane waves:    1622
 k-point    14 :   0.1667 0.1667 0.0000  plane waves:    1614
 k-point    15 :   0.2500 0.1667 0.0000  plane waves:    1611
 k-point    16 :   0.3333 0.1667 0.0000  plane waves:    1614
 k-point    17 :   0.4167 0.1667 0.0000  plane waves:    1621
 k-point    18 :   0.5000 0.1667 0.0000  plane waves:    1622
 k-point    19 :   0.2500 0.2500 0.0000  plane waves:    1608
 k-point    20 :   0.3333 0.2500 0.0000  plane waves:    1617
 k-point    21 :   0.4167 0.2500 0.0000  plane waves:    1623
 k-point    22 :   0.5000 0.2500 0.0000  plane waves:    1624
 k-point    23 :   0.3333 0.3333 0.0000  plane waves:    1614
 k-point    24 :   0.4167 0.3333 0.0000  plane waves:    1620
 k-point    25 :   0.5000 0.3333 0.0000  plane waves:    1622
 k-point    26 :   0.4167 0.4167 0.0000  plane waves:    1628
 k-point    27 :   0.5000 0.4167 0.0000  plane waves:    1624
 k-point    28 :   0.5000 0.5000 0.0000  plane waves:    1628
 k-point    29 :   0.0833 0.0833 0.0833  plane waves:    1638
 k-point    30 :   0.1667 0.0833 0.0833  plane waves:    1634
 k-point    31 :   0.2500 0.0833 0.0833  plane waves:    1620
 k-point    32 :   0.3333 0.0833 0.0833  plane waves:    1618
 k-point    33 :   0.4167 0.0833 0.0833  plane waves:    1621
 k-point    34 :   0.5000 0.0833 0.0833  plane waves:    1622
 k-point    35 :   0.1667 0.1667 0.0833  plane waves:    1621
 k-point    36 :   0.2500 0.1667 0.0833  plane waves:    1620
 k-point    37 :   0.3333 0.1667 0.0833  plane waves:    1621
 k-point    38 :   0.4167 0.1667 0.0833  plane waves:    1617
 k-point    39 :   0.5000 0.1667 0.0833  plane waves:    1614
 k-point    40 :   0.2500 0.2500 0.0833  plane waves:    1608
 k-point    41 :   0.3333 0.2500 0.0833  plane waves:    1615
 k-point    42 :   0.4167 0.2500 0.0833  plane waves:    1616
 k-point    43 :   0.5000 0.2500 0.0833  plane waves:    1616
 k-point    44 :   0.3333 0.3333 0.0833  plane waves:    1609
 k-point    45 :   0.4167 0.3333 0.0833  plane waves:    1616
 k-point    46 :   0.5000 0.3333 0.0833  plane waves:    1620
 k-point    47 :   0.4167 0.4167 0.0833  plane waves:    1624
 k-point    48 :   0.5000 0.4167 0.0833  plane waves:    1626
 k-point    49 :   0.5000 0.5000 0.0833  plane waves:    1632
 k-point    50 :   0.1667 0.1667 0.1667  plane waves:    1629
 k-point    51 :   0.2500 0.1667 0.1667  plane waves:    1621
 k-point    52 :   0.3333 0.1667 0.1667  plane waves:    1612
 k-point    53 :   0.4167 0.1667 0.1667  plane waves:    1611
 k-point    54 :   0.5000 0.1667 0.1667  plane waves:    1622
 k-point    55 :   0.2500 0.2500 0.1667  plane waves:    1613
 k-point    56 :   0.3333 0.2500 0.1667  plane waves:    1619
 k-point    57 :   0.4167 0.2500 0.1667  plane waves:    1615
 k-point    58 :   0.5000 0.2500 0.1667  plane waves:    1618
 k-point    59 :   0.3333 0.3333 0.1667  plane waves:    1619
 k-point    60 :   0.4167 0.3333 0.1667  plane waves:    1622
 k-point    61 :   0.5000 0.3333 0.1667  plane waves:    1610
 k-point    62 :   0.4167 0.4167 0.1667  plane waves:    1620
 k-point    63 :   0.5000 0.4167 0.1667  plane waves:    1620
 k-point    64 :   0.5000 0.5000 0.1667  plane waves:    1616
 k-point    65 :   0.2500 0.2500 0.2500  plane waves:    1607
 k-point    66 :   0.3333 0.2500 0.2500  plane waves:    1614
 k-point    67 :   0.4167 0.2500 0.2500  plane waves:    1615
 k-point    68 :   0.5000 0.2500 0.2500  plane waves:    1622
 k-point    69 :   0.3333 0.3333 0.2500  plane waves:    1617
 k-point    70 :   0.4167 0.3333 0.2500  plane waves:    1625
 k-point    71 :   0.5000 0.3333 0.2500  plane waves:    1622
 k-point    72 :   0.4167 0.4167 0.2500  plane waves:    1618
 k-point    73 :   0.5000 0.4167 0.2500  plane waves:    1618
 k-point    74 :   0.5000 0.5000 0.2500  plane waves:    1596
 k-point    75 :   0.3333 0.3333 0.3333  plane waves:    1628
 k-point    76 :   0.4167 0.3333 0.3333  plane waves:    1608
 k-point    77 :   0.5000 0.3333 0.3333  plane waves:    1616
 k-point    78 :   0.4167 0.4167 0.3333  plane waves:    1614
 k-point    79 :   0.5000 0.4167 0.3333  plane waves:    1618
 k-point    80 :   0.5000 0.5000 0.3333  plane waves:    1620
 k-point    81 :   0.4167 0.4167 0.4167  plane waves:    1622
 k-point    82 :   0.5000 0.4167 0.4167  plane waves:    1614
 k-point    83 :   0.5000 0.5000 0.4167  plane waves:    1612
 k-point    84 :   0.5000 0.5000 0.5000  plane waves:    1640

 maximum and minimum number of plane-waves per node :      1647     1596

 maximum number of plane-waves:      1647
 maximum index in each direction: 
   IXMAX=    7   IYMAX=    7   IZMAX=    7
   IXMIN=   -7   IYMIN=   -7   IZMIN=   -7


 serial   3D FFT for wavefunctions
 parallel 3D FFT for charge:
    minimum data exchange during FFTs selected (reduces bandwidth)


 total amount of memory used by VASP MPI-rank0   110691. kBytes
=======================================================================

   base      :      30000. kBytes
   nonl-proj :      20039. kBytes
   fftplans  :       8118. kBytes
   grid      :       6177. kBytes
   one-center:        124. kBytes
   wavefun   :      46233. kBytes
 
     INWAV:  cpu time      0.0000: real time      0.0001
 Broyden mixing: mesh for mixing (old mesh)
   NGX = 15   NGY = 15   NGZ = 15
  (NGX  = 60   NGY  = 60   NGZ  = 60)
  gives a total of   3375 points

 initial charge density was supplied:
 charge density of overlapping atoms calculated
 number of electron      64.0000000 magnetization       4.0000000
 keeping initial charge density in first step


--------------------------------------------------------------------------------------------------------


 Maximum index for augmentation-charges         34825 (set IRDMAX)


--------------------------------------------------------------------------------------------------------


 First call to EWALD:  gamma=   0.452
 Maximum number of real-space cells 3x 3x 3
 Maximum number of reciprocal cells 3x 3x 3

    FEWALD:  cpu time      0.0004: real time      0.0004


--------------------------------------- Ionic step        1  -------------------------------------------




--------------------------------------- Iteration      1(   1)  ---------------------------------------


    POTLOK:  cpu time      0.0410: real time      0.0412
    SETDIJ:  cpu time      0.4212: real time      0.4220
     EDDAV:  cpu time      6.3298: real time      7.0988
       DOS:  cpu time      0.0012: real time      0.0012
    --------------------------------------------
      LOOP:  cpu time      6.7932: real time      7.5632

 eigenvalue-minimisations  : 13824
 total energy-change (2. order) : 0.7789861E+03  (-0.4001525E+04)
 number of electron      64.0000000 magnetization       4.0000000
 augmentation part       64.0000000 magnetization       4.0000000

 Free energy of the ion-electron system (eV)
  ---------------------------------------------------
  alpha Z        PSCENC =       542.73305656
  Ewald energy   TEWEN  =     -8629.09612564
  -Hartree energ DENC   =     -2225.92554515
  -exchange      EXHF   =         0.00000000
  -V(xc)+E(xc)   XCENC  =       331.53594691
  PAW double counting   =      9031.68406025    -8916.38598993
  entropy T*S    EENTRO =        -0.00049470
  eigenvalues    EBANDS =       158.25633248
  atomic energy  EATOM  =     10486.18486129
  Solvation  Ediel_sol  =         0.00000000
  ---------------------------------------------------
  free energy    TOTEN  =       778.98610206 eV

  energy without entropy =      778.98659676  energy(sigma->0) =      778.98626696


--------------------------------------------------------------------------------------------------------




--------------------------------------- Iteration      1(   2)  ---------------------------------------


     EDDAV:  cpu time      5.8583: real time      6.5723
       DOS:  cpu time      0.0012: real time      0.0012
    --------------------------------------------
      LOOP:  cpu time      5.8595: real time      6.5735

 eigenvalue-minimisations  : 14072
 total energy-change (2. order) :-0.7716599E+03  (-0.7439751E+03)
 number of electron      64.0000000 magnetization       4.0000000
 augmentation part       64.0000000 magnetization       4.0000000

 Free energy of the ion-electron system (eV)
  ---------------------------------------------------
  alpha Z        PSCENC =       542.73305656
  Ewald energy   TEWEN  =     -8629.09612564
  -Hartree energ DENC   =     -2225.92554515
  -exchange      EXHF   =         0.00000000
  -V(xc)+E(xc)   XCENC  =       331.53594691
  PAW double counting   =      9031.68406025    -8916.38598993
  entropy T*S    EENTRO =         0.00094944
  eigenvalues    EBANDS =      -613.40505838
  atomic energy  EATOM  =     10486.18486129
  Solvation  Ediel_sol  =         0.00000000
  ---------------------------------------------------
  free energy    TOTEN  =         7.32615535 eV

  energy without entropy =        7.32520591  energy(sigma->0) =        7.32583887


--------------------------------------------------------------------------------------------------------




--------------------------------------- Iteration      1(   3)  ---------------------------------------


     EDDAV:  cpu time      7.5699: real time      8.0155
       DOS:  cpu time      0.0011: real time      0.0011
    --------------------------------------------
      LOOP:  cpu time      7.5710: real time      8.0167

 eigenvalue-minimisations  : 14936
 total energy-change (2. order) :-0.2870848E+02  (-0.2802773E+02)
 number of electron      64.0000000 magnetization       4.0000000
 augmentation part       64.0000000 magnetization       4.0000000

 Free energy of the ion-electron system (eV)
  ---------------------------------------------------
  alpha Z        PSCENC =       542.73305656
  Ewald energy   TEWEN  =     -8629.09612564
  -Hartree energ DENC   =     -2225.92554515
  -exchange      EXHF   =         0.00000000
  -V(xc)+E(xc)   XCENC  =       331.53594691
  PAW double counting   =      9031.68406025    -8916.38598993
  entropy T*S    EENTRO =         0.00147105
  eigenvalues    EBANDS =      -642.11405968
  atomic energy  EATOM  =     10486.18486129
  Solvation  Ediel_sol  =         0.00000000
  ---------------------------------------------------
  free energy    TOTEN  =       -21.38232435 eV

  energy without entropy =      -21.38379540  energy(sigma->0) =      -21.38281470


--------------------------------------------------------------------------------------------------------




--------------------------------------- Iteration      1(   4)  ---------------------------------------


     EDDAV:  cpu time      6.4878: real time      6.4883
       DOS:  cpu time      0.0012: real time      0.0012
    --------------------------------------------
      LOOP:  cpu time      6.4890: real time      6.4896

 eigenvalue-minimisations  : 14472
 total energy-change (2. order) :-0.3114147E+00  (-0.3112928E+00)
 number of electron      64.0000000 magnetization       4.0000000
 augmentation part       64.0000000 magnetization       4.0000000

 Free energy of the ion-electron system (eV)
  ---------------------------------------------------
  alpha Z        PSCENC =       542.73305656
  Ewald energy   TEWEN  =     -8629.09612564
  -Hartree energ DENC   =     -2225.92554515
  -exchange      EXHF   =         0.00000000
  -V(xc)+E(xc)   XCENC  =       331.53594691
  PAW double counting   =      9031.68406025    -8916.38598993
  entropy T*S    EENTRO =         0.00147169
  eigenvalues    EBANDS =      -642.42547506
  atomic energy  EATOM  =     10486.18486129
  Solvation  Ediel_sol  =         0.00000000
  ---------------------------------------------------
  free energy    TOTEN  =       -21.69373910 eV

  energy without entropy =      -21.69521078  energy(sigma->0) =      -21.69422966


--------------------------------------------------------------------------------------------------------




--------------------------------------- Iteration      1(   5)  ---------------------------------------


     EDDAV:  cpu time      6.3078: real time      6.3079
       DOS:  cpu time      0.0011: real time      0.0011
    CHARGE:  cpu time      0.8792: real time      0.8793
    MIXING:  cpu time      0.0012: real time      0.0012
    --------------------------------------------
      LOOP:  cpu time      7.1893: real time      7.1895

 eigenvalue-minimisations  : 14904
 total energy-change (2. order) :-0.5066853E-02  (-0.5066796E-02)
 number of electron      64.0000003 magnetization       1.8392689
 augmentation part       29.8752779 magnetization       1.0182658

 Broyden mixing:
  rms(total) = 0.10816E+01    rms(broyden)= 0.10816E+01
  rms(prec ) = 0.18656E+01
  weight for this iteration     100.00

 Free energy of the ion-electron system (eV)
  ---------------------------------------------------
  alpha Z        PSCENC =       542.73305656
  Ewald energy   TEWEN  =     -8629.09612564
  -Hartree energ DENC   =     -2225.92554515
  -exchange      EXHF   =         0.00000000
  -V(xc)+E(xc)   XCENC  =       331.53594691
  PAW double counting   =      9031.68406025    -8916.38598993
  entropy T*S    EENTRO =         0.00147186
  eigenvalues    EBANDS =      -642.43054209
  atomic energy  EATOM  =     10486.18486129
  Solvation  Ediel_sol  =         0.00000000
  ---------------------------------------------------
  free energy    TOTEN  =       -21.69880595 eV

  energy without entropy =      -21.70027781  energy(sigma->0) =      -21.69929657


--------------------------------------------------------------------------------------------------------




--------------------------------------- Iteration      1(   6)  ---------------------------------------


    POTLOK:  cpu time      0.0399: real time      0.0399
    SETDIJ:  cpu time      0.4140: real time      0.4140
     EDDAV:  cpu time      5.7287: real time      5.7315
       DOS:  cpu time      0.0012: real time      0.0012
    CHARGE:  cpu time      0.5437: real time      0.5437
    MIXING:  cpu time      0.0012: real time      0.0012
    --------------------------------------------
      LOOP:  cpu time      6.7287: real time      6.7315

 eigenvalue-minimisations  : 14472
 total energy-change (2. order) : 0.8690034E+00  (-0.3754161E+00)
 number of electron      64.0000003 magnetization       1.5097062
 augmentation part       30.6982334 magnetization       0.9147528

 Broyden mixing:
  rms(total) = 0.22857E+00    rms(broyden)= 0.22854E+00
  rms(prec ) = 0.27497E+00
  weight for this iteration     100.00

 eigenvalues of (default mixing * dielectric matrix)
  average eigenvalue GAMMA=   1.0112
  1.0112

 Free energy of the ion-electron system (eV)
  ---------------------------------------------------
  alpha Z        PSCENC =       542.73305656
  Ewald energy   TEWEN  =     -8629.09612564
  -Hartree energ DENC   =     -2157.20410661
  -exchange      EXHF   =         0.00000000
  -V(xc)+E(xc)   XCENC  =       328.31720385
  PAW double counting   =      9250.89714358    -9143.38185851
  entropy T*S    EENTRO =         0.00076526
  eigenvalues    EBANDS =      -699.28074234
  atomic energy  EATOM  =     10486.18486129
  Solvation  Ediel_sol  =         0.00000000
  ---------------------------------------------------
  free energy    TOTEN  =       -20.82980256 eV

  energy without entropy =      -20.83056783  energy(sigma->0) =      -20.83005765


--------------------------------------------------------------------------------------------------------




--------------------------------------- Iteration      1(   7)  ---------------------------------------


    POTLOK:  cpu time      0.0403: real time      0.0403
    SETDIJ:  cpu time      0.4153: real time      0.4153
     EDDAV:  cpu time      7.1055: real time      7.1065
       DOS:  cpu time      0.0012: real time      0.0012
    CHARGE:  cpu time      0.6294: real time      0.6294
    MIXING:  cpu time      0.0012: real time      0.0012
    --------------------------------------------
      LOOP:  cpu time      8.1928: real time      8.1938

 eigenvalue-minimisations  : 14408
 total energy-change (2. order) : 0.8980057E-03  (-0.3909629E-02)
 number of electron      64.0000003 magnetization       1.2846250
 augmentation part       30.6835218 magnetization       0.8065785

 Broyden mixing:
  rms(total) = 0.15201E+00    rms(broyden)= 0.15201E+00
  rms(prec ) = 0.17873E+00
  weight for this iteration     100.00

 eigenvalues of (default mixing * dielectric matrix)
  average eigenvalue GAMMA=   0.9698
  1.2920  0.6476

 Free energy of the ion-electron system (eV)
  ---------------------------------------------------
  alpha Z        PSCENC =       542.73305656
  Ewald energy   TEWEN  =     -8629.09612564
  -Hartree energ DENC   =     -2156.44089496
  -exchange      EXHF   =         0.00000000
  -V(xc)+E(xc)   XCENC  =       328.26643376
  PAW double counting   =      9381.20717294    -9275.00967417
  entropy T*S    EENTRO =        -0.00028741
  eigenvalues    EBANDS =      -698.67344692
  atomic energy  EATOM  =     10486.18486129
  Solvation  Ediel_sol  =         0.00000000
  ---------------------------------------------------
  free energy    TOTEN  =       -20.82890456 eV

  energy without entropy =      -20.82861715  energy(sigma->0) =      -20.82880875


--------------------------------------------------------------------------------------------------------




--------------------------------------- Iteration      1(   8)  ---------------------------------------


    POTLOK:  cpu time      0.0396: real time      0.0396
    SETDIJ:  cpu time      0.5131: real time      0.5131
     EDDAV:  cpu time      9.1788: real time      9.2050
       DOS:  cpu time      0.0012: real time      0.0012
    CHARGE:  cpu time      0.5458: real time      0.5458
    MIXING:  cpu time      0.0013: real time      0.0013
    --------------------------------------------
      LOOP:  cpu time     10.2798: real time     10.3061

 eigenvalue-minimisations  : 14808
 total energy-change (2. order) : 0.1540200E-02  (-0.4522810E-03)
 number of electron      64.0000003 magnetization       1.0893522
 augmentation part       30.6842977 magnetization       0.6459299

 Broyden mixing:
  rms(total) = 0.83584E-01    rms(broyden)= 0.83583E-01
  rms(prec ) = 0.97419E-01
  weight for this iteration     100.00

 eigenvalues of (default mixing * dielectric matrix)
  average eigenvalue GAMMA=   1.2693
  2.2701  0.9243  0.6135

 Free energy of the ion-electron system (eV)
  ---------------------------------------------------
  alpha Z        PSCENC =       542.73305656
  Ewald energy   TEWEN  =     -8629.09612564
  -Hartree energ DENC   =     -2155.08381526
  -exchange      EXHF   =         0.00000000
  -V(xc)+E(xc)   XCENC  =       328.18946462
  PAW double counting   =      9473.52602908    -9368.11959953
  entropy T*S    EENTRO =        -0.00052545
  eigenvalues    EBANDS =      -699.16071003
  atomic energy  EATOM  =     10486.18486129
  Solvation  Ediel_sol  =         0.00000000
  ---------------------------------------------------
  free energy    TOTEN  =       -20.82736436 eV

  energy without entropy =      -20.82683891  energy(sigma->0) =      -20.82718921


--------------------------------------------------------------------------------------------------------




--------------------------------------- Iteration      1(   9)  ---------------------------------------


    POTLOK:  cpu time      0.0395: real time      0.0397
    SETDIJ:  cpu time      0.4242: real time      0.4247
     EDDAV:  cpu time      7.1222: real time      7.1254
       DOS:  cpu time      0.0012: real time      0.0012
    CHARGE:  cpu time      0.5427: real time      0.5427
    MIXING:  cpu time      0.0013: real time      0.0013
    --------------------------------------------
      LOOP:  cpu time      8.1312: real time      8.1350

 eigenvalue-minimisations  : 14256
 total energy-change (2. order) :-0.5143985E-03  (-0.2582377E-03)
 number of electron      64.0000003 magnetization       1.0682051
 augmentation part       30.6870664 magnetization       0.6841806

 Broyden mixing:
  rms(total) = 0.86402E-02    rms(broyden)= 0.86313E-02
  rms(prec ) = 0.99344E-02
  weight for this iteration     100.00

 eigenvalues of (default mixing * dielectric matrix)
  average eigenvalue GAMMA=   1.2525
  2.5839  0.9517  0.8592  0.6152

 Free energy of the ion-electron system (eV)
  ---------------------------------------------------
  alpha Z        PSCENC =       542.73305656
  Ewald energy   TEWEN  =     -8629.09612564
  -Hartree energ DENC   =     -2153.57742093
  -exchange      EXHF   =         0.00000000
  -V(xc)+E(xc)   XCENC  =       328.11179378
  PAW double counting   =      9577.20486401    -9472.53834245
  entropy T*S    EENTRO =        -0.00049355
  eigenvalues    EBANDS =      -699.85007182
  atomic energy  EATOM  =     10486.18486129
  Solvation  Ediel_sol  =         0.00000000
  ---------------------------------------------------
  free energy    TOTEN  =       -20.82787875 eV

  energy without entropy =      -20.82738520  energy(sigma->0) =      -20.82771424


--------------------------------------------------------------------------------------------------------




--------------------------------------- Iteration      1(  10)  ---------------------------------------


    POTLOK:  cpu time      0.0401: real time      0.0402
    SETDIJ:  cpu time      0.4164: real time      0.4164
     EDDAV:  cpu time      5.9229: real time      5.9268
       DOS:  cpu time      0.0012: real time      0.0012
    CHARGE:  cpu time      0.5457: real time      0.5457
    MIXING:  cpu time      0.0013: real time      0.0013
    --------------------------------------------
      LOOP:  cpu time      6.9276: real time      6.9316

 eigenvalue-minimisations  : 15152
 total energy-change (2. order) :-0.2485404E-03  (-0.2953549E-04)
 number of electron      64.0000003 magnetization       1.0480410
 augmentation part       30.6884460 magnetization       0.6741128

 Broyden mixing:
  rms(total) = 0.84198E-02    rms(broyden)= 0.84181E-02
  rms(prec ) = 0.93829E-02
  weight for this iteration     100.00

 eigenvalues of (default mixing * dielectric matrix)
  average eigenvalue GAMMA=   1.0956
  2.5966  0.9427  0.9427  0.6074  0.3888

 Free energy of the ion-electron system (eV)
  ---------------------------------------------------
  alpha Z        PSCENC =       542.73305656
  Ewald energy   TEWEN  =     -8629.09612564
  -Hartree energ DENC   =     -2153.61918081
  -exchange      EXHF   =         0.00000000
  -V(xc)+E(xc)   XCENC  =       328.11225105
  PAW double counting   =      9581.81580326    -9477.02940548
  entropy T*S    EENTRO =        -0.00045130
  eigenvalues    EBANDS =      -699.92893621
  atomic energy  EATOM  =     10486.18486129
  Solvation  Ediel_sol  =         0.00000000
  ---------------------------------------------------
  free energy    TOTEN  =       -20.82812730 eV

  energy without entropy =      -20.82767599  energy(sigma->0) =      -20.82797686


--------------------------------------------------------------------------------------------------------




--------------------------------------- Iteration      1(  11)  ---------------------------------------


    POTLOK:  cpu time      0.0398: real time      0.0399
    SETDIJ:  cpu time      0.4154: real time      0.4155
     EDDAV:  cpu time      6.7072: real time      6.7110
       DOS:  cpu time      0.0012: real time      0.0012
    CHARGE:  cpu time      0.8020: real time      0.8023
    MIXING:  cpu time      0.0013: real time      0.0013
    --------------------------------------------
      LOOP:  cpu time      7.9669: real time      7.9711

 eigenvalue-minimisations  : 14640
 total energy-change (2. order) :-0.5050631E-04  (-0.2704723E-05)
 number of electron      64.0000003 magnetization       0.9694491
 augmentation part       30.6885174 magnetization       0.6012308

 Broyden mixing:
  rms(total) = 0.67958E-02    rms(broyden)= 0.67954E-02
  rms(prec ) = 0.74814E-02
  weight for this iteration     100.00

 eigenvalues of (default mixing * dielectric matrix)
  average eigenvalue GAMMA=   1.5457
  3.2693  2.5164  1.1723  0.9694  0.6199  0.7266

 Free energy of the ion-electron system (eV)
  ---------------------------------------------------
  alpha Z        PSCENC =       542.73305656
  Ewald energy   TEWEN  =     -8629.09612564
  -Hartree energ DENC   =     -2153.71304795
  -exchange      EXHF   =         0.00000000
  -V(xc)+E(xc)   XCENC  =       328.11524188
  PAW double counting   =      9582.94506795    -9478.06833047
  entropy T*S    EENTRO =        -0.00039544
  eigenvalues    EBANDS =      -699.92850598
  atomic energy  EATOM  =     10486.18486129
  Solvation  Ediel_sol  =         0.00000000
  ---------------------------------------------------
  free energy    TOTEN  =       -20.82817780 eV

  energy without entropy =      -20.82778236  energy(sigma->0) =      -20.82804599


--------------------------------------------------------------------------------------------------------




--------------------------------------- Iteration      1(  12)  ---------------------------------------


    POTLOK:  cpu time      0.0395: real time      0.0396
    SETDIJ:  cpu time      0.6784: real time      0.7535
     EDDAV:  cpu time      5.8016: real time      5.8345
       DOS:  cpu time      0.0012: real time      0.0012
    CHARGE:  cpu time      0.5445: real time      0.5444
    MIXING:  cpu time      0.0014: real time      0.0014
    --------------------------------------------
      LOOP:  cpu time      7.0666: real time      7.1746

 eigenvalue-minimisations  : 14144
 total energy-change (2. order) :-0.6626888E-04  (-0.1527360E-04)
 number of electron      64.0000003 magnetization       0.9652550
 augmentation part       30.6882269 magnetization       0.6175815

 Broyden mixing:
  rms(total) = 0.86611E-03    rms(broyden)= 0.85602E-03
  rms(prec ) = 0.10677E-02
  weight for this iteration     100.00

 eigenvalues of (default mixing * dielectric matrix)
  average eigenvalue GAMMA=   1.4622
  3.5095  2.5218  1.1792  0.9636  0.7488  0.6235  0.6890

 Free energy of the ion-electron system (eV)
  ---------------------------------------------------
  alpha Z        PSCENC =       542.73305656
  Ewald energy   TEWEN  =     -8629.09612564
  -Hartree energ DENC   =     -2154.00185262
  -exchange      EXHF   =         0.00000000
  -V(xc)+E(xc)   XCENC  =       328.12425814
  PAW double counting   =      9585.16147308    -9480.04368641
  entropy T*S    EENTRO =        -0.00015924
  eigenvalues    EBANDS =      -699.89006922
  atomic energy  EATOM  =     10486.18486129
  Solvation  Ediel_sol  =         0.00000000
  ---------------------------------------------------
  free energy    TOTEN  =       -20.82824407 eV

  energy without entropy =      -20.82808483  energy(sigma->0) =      -20.82819099


--------------------------------------------------------------------------------------------------------




--------------------------------------- Iteration      1(  13)  ---------------------------------------


    POTLOK:  cpu time      0.0398: real time      0.0398
    SETDIJ:  cpu time      0.4262: real time      0.4262
     EDDAV:  cpu time      5.3512: real time      5.6027
       DOS:  cpu time      0.0012: real time      0.0012
    CHARGE:  cpu time      0.5457: real time      0.5458
    MIXING:  cpu time      0.0014: real time      0.0014
    --------------------------------------------
      LOOP:  cpu time      6.3653: real time      6.6171

 eigenvalue-minimisations  : 12528
 total energy-change (2. order) :-0.6015820E-05  (-0.4207197E-06)
 number of electron      64.0000003 magnetization       0.9616854
 augmentation part       30.6882620 magnetization       0.6151470

 Broyden mixing:
  rms(total) = 0.58293E-03    rms(broyden)= 0.58171E-03
  rms(prec ) = 0.73605E-03
  weight for this iteration     100.00

 eigenvalues of (default mixing * dielectric matrix)
  average eigenvalue GAMMA=   1.3785
  3.6798  2.5254  1.1759  0.9418  0.7619  0.6176  0.6628  0.6628

 Free energy of the ion-electron system (eV)
  ---------------------------------------------------
  alpha Z        PSCENC =       542.73305656
  Ewald energy   TEWEN  =     -8629.09612564
  -Hartree energ DENC   =     -2153.98906187
  -exchange      EXHF   =         0.00000000
  -V(xc)+E(xc)   XCENC  =       328.12351556
  PAW double counting   =      9584.90985131    -9479.80107843
  entropy T*S    EENTRO =        -0.00014994
  eigenvalues    EBANDS =      -699.89311892
  atomic energy  EATOM  =     10486.18486129
  Solvation  Ediel_sol  =         0.00000000
  ---------------------------------------------------
  free energy    TOTEN  =       -20.82825009 eV

  energy without entropy =      -20.82810014  energy(sigma->0) =      -20.82820011


--------------------------------------------------------------------------------------------------------




--------------------------------------- Iteration      1(  14)  ---------------------------------------


    POTLOK:  cpu time      0.0398: real time      0.0398
    SETDIJ:  cpu time      0.4165: real time      0.4167
     EDDAV:  cpu time      3.9619: real time      3.9629
       DOS:  cpu time      0.0012: real time      0.0012
    CHARGE:  cpu time      0.5419: real time      0.5421
    MIXING:  cpu time      0.0014: real time      0.0014
    --------------------------------------------
      LOOP:  cpu time      4.9626: real time      4.9640

 eigenvalue-minimisations  :  7480
 total energy-change (2. order) :-0.1268933E-05  (-0.6036912E-07)
 number of electron      64.0000003 magnetization       0.9593820
 augmentation part       30.6882985 magnetization       0.6138745

 Broyden mixing:
  rms(total) = 0.26460E-03    rms(broyden)= 0.26421E-03
  rms(prec ) = 0.37593E-03
  weight for this iteration     100.00

 eigenvalues of (default mixing * dielectric matrix)
  average eigenvalue GAMMA=   1.4994
  3.9020  2.5518  2.1772  1.1108  0.9923  0.7396  0.7396  0.6227  0.6587

 Free energy of the ion-electron system (eV)
  ---------------------------------------------------
  alpha Z        PSCENC =       542.73305656
  Ewald energy   TEWEN  =     -8629.09612564
  -Hartree energ DENC   =     -2153.97346627
  -exchange      EXHF   =         0.00000000
  -V(xc)+E(xc)   XCENC  =       328.12264876
  PAW double counting   =      9584.61283901    -9479.51656425
  entropy T*S    EENTRO =        -0.00013825
  eigenvalues    EBANDS =      -699.89536256
  atomic energy  EATOM  =     10486.18486129
  Solvation  Ediel_sol  =         0.00000000
  ---------------------------------------------------
  free energy    TOTEN  =       -20.82825135 eV

  energy without entropy =      -20.82811310  energy(sigma->0) =      -20.82820527


--------------------------------------------------------------------------------------------------------




--------------------------------------- Iteration      1(  15)  ---------------------------------------


    POTLOK:  cpu time      0.0399: real time      0.0399
    SETDIJ:  cpu time      0.4171: real time      0.4171
     EDDAV:  cpu time      3.8869: real time      3.8883
       DOS:  cpu time      0.0012: real time      0.0012
    CHARGE:  cpu time      0.5457: real time      0.5457
    MIXING:  cpu time      0.0015: real time      0.0015
    --------------------------------------------
      LOOP:  cpu time      4.8922: real time      4.8937

 eigenvalue-minimisations  :  7416
 total energy-change (2. order) :-0.1509075E-05  (-0.2909375E-07)
 number of electron      64.0000003 magnetization       0.9584070
 augmentation part       30.6883272 magnetization       0.6134956

 Broyden mixing:
  rms(total) = 0.12327E-03    rms(broyden)= 0.12309E-03
  rms(prec ) = 0.12541E-03
  weight for this iteration     100.00

 eigenvalues of (default mixing * dielectric matrix)
  average eigenvalue GAMMA=   1.4700
  3.8387  2.6101  2.4703  1.0682  0.9840  0.9840  0.8093  0.6826  0.6325  0.6198

 Free energy of the ion-electron system (eV)
  ---------------------------------------------------
  alpha Z        PSCENC =       542.73305656
  Ewald energy   TEWEN  =     -8629.09612564
  -Hartree energ DENC   =     -2153.94813560
  -exchange      EXHF   =         0.00000000
  -V(xc)+E(xc)   XCENC  =       328.12142087
  PAW double counting   =      9584.19009944    -9479.11613491
  entropy T*S    EENTRO =        -0.00013057
  eigenvalues    EBANDS =      -699.89716431
  atomic energy  EATOM  =     10486.18486129
  Solvation  Ediel_sol  =         0.00000000
  ---------------------------------------------------
  free energy    TOTEN  =       -20.82825286 eV

  energy without entropy =      -20.82812229  energy(sigma->0) =      -20.82820934


--------------------------------------------------------------------------------------------------------




--------------------------------------- Iteration      1(  16)  ---------------------------------------


    POTLOK:  cpu time      0.0402: real time      0.0402
    SETDIJ:  cpu time      0.4197: real time      0.4198
     EDDAV:  cpu time      3.8236: real time      3.8249
       DOS:  cpu time      0.0011: real time      0.0011
    --------------------------------------------
      LOOP:  cpu time      4.2846: real time      4.2859

 eigenvalue-minimisations  :  7256
 total energy-change (2. order) :-0.1600856E-06  (-0.4922441E-08)
 number of electron      64.0000003 magnetization       0.9584070
 augmentation part       30.6883272 magnetization       0.6134956

 Free energy of the ion-electron system (eV)
  ---------------------------------------------------
  alpha Z        PSCENC =       542.73305656
  Ewald energy   TEWEN  =     -8629.09612564
  -Hartree energ DENC   =     -2153.94676353
  -exchange      EXHF   =         0.00000000
  -V(xc)+E(xc)   XCENC  =       328.12131248
  PAW double counting   =      9584.15975843    -9479.08769423
  entropy T*S    EENTRO =        -0.00012766
  eigenvalues    EBANDS =      -699.89653073
  atomic energy  EATOM  =     10486.18486129
  Solvation  Ediel_sol  =         0.00000000
  ---------------------------------------------------
  free energy    TOTEN  =       -20.82825302 eV

  energy without entropy =      -20.82812537  energy(sigma->0) =      -20.82821047


--------------------------------------------------------------------------------------------------------




 average (electrostatic) potential at core
  the test charge radii are     1.0504
  (the norm of the test charge is              1.0000)
       1 -74.6010       2 -74.6010       3 -74.6010       4 -74.6010
 
 
 
 E-fermi :   9.3367     XC(G=0): -13.2454     alpha+bet :-16.2254

 val. band max:        9.3360954010   @ k =   0.4167   0.0833   0.0833
 cond. band min:       9.3373314329   @ k =   0.5000   0.5000   0.4167
 fundamental gap:      0.0012360319
 Fermi energy:         9.3366701677

 spin component 1

 k-point     1 :       0.0000    0.0000    0.0000
  band No.  band energies     occupation 
      1     -40.7601      1.00000
      2     -40.7601      1.00000
      3     -40.7601      1.00000
      4     -40.5418      1.00000
      5     -40.5418      1.00000
      6     -40.5418      1.00000
      7     -40.5418      1.00000
      8     -40.5418      1.00000
      9     -40.5418      1.00000
     10     -40.3983      1.00000
     11     -40.3983      1.00000
     12     -40.3983      1.00000
     13       2.2992      1.00000
     14       4.0278      1.00000
     15       4.0278      1.00000
     16       4.0278      1.00000
     17       4.2748      1.00000
     18       4.2748      1.00000
     19       4.2748      1.00000
     20       6.4623      1.00000
     21       6.4623      1.00000
     22       6.4623      1.00000
     23       8.0474      1.00000
     24       8.0474      1.00000
     25       9.1827      1.02586
     26       9.1827      1.02586
     27       9.1827      1.02586
     28       9.4816     -0.02986
     29       9.4816     -0.02986
     30       9.4816     -0.02986
     31       9.4816     -0.02986
     32       9.4816     -0.02986
     33       9.4816     -0.02986
     34      12.6560      0.00000
     35      12.6560      0.00000
     36      12.6560      0.00000
     37      19.8447      0.00000
     38      19.8447      0.00000
     39      19.8447      0.00000
     40      22.4154      0.00000

 k-point     2 :       0.0833    0.0000    0.0000
  band No.  band energies     occupation 
      1     -40.7564      1.00000
      2     -40.7564      1.00000
      3     -40.7542      1.00000
      4     -40.5455      1.00000
      5     -40.5455      1.00000
      6     -40.5419      1.00000
      7     -40.5419      1.00000
      8     -40.5393      1.00000
      9     -40.5393      1.00000
     10     -40.4047      1.00000
     11     -40.4007      1.00000
     12     -40.4007      1.00000
     13       2.3828      1.00000
     14       4.0672      1.00000
     15       4.0811      1.00000
     16       4.0811      1.00000
     17       4.3063      1.00000
     18       4.3225      1.00000
     19       4.3225      1.00000
     20       6.4173      1.00000
     21       6.4994      1.00000
     22       6.4994      1.00000
     23       8.0008      1.00000
     24       8.0652      1.00000
     25       9.1188      1.00430
     26       9.1188      1.00430
     27       9.1617      1.01643
     28       9.2054      1.03441
     29       9.2054      1.03441
     30       9.4053      0.04513
     31       9.4053      0.04513
     32       9.4817     -0.02980
     33       9.4817     -0.02980
     34      12.2416      0.00000
     35      12.9899      0.00000
     36      12.9899      0.00000
     37      19.8272      0.00000
     38      19.8272      0.00000
     39      20.3605      0.00000
     40      22.2487      0.00000

 k-point     3 :       0.1667    0.0000    0.0000
  band No.  band energies     occupation 
      1     -40.7456      1.00000
      2     -40.7456      1.00000
      3     -40.7369      1.00000
      4     -40.5565      1.00000
      5     -40.5565      1.00000
      6     -40.5424      1.00000
      7     -40.5424      1.00000
      8     -40.5322      1.00000
      9     -40.5322      1.00000
     10     -40.4236      1.00000
     11     -40.4079      1.00000
     12     -40.4079      1.00000
     13       2.6288      1.00000
     14       4.1788      1.00000
     15       4.2343      1.00000
     16       4.2343      1.00000
     17       4.3995      1.00000
     18       4.4650      1.00000
     19       4.4650      1.00000
     20       6.2875      1.00000
     21       6.6100      1.00000
     22       6.6100      1.00000
     23       7.8689      1.00000
     24       8.1178      1.00000
     25       8.5895      1.00000
     26       8.5895      1.00000
     27       8.9351      1.00000
     28       8.9351      1.00000
     29       9.1003      1.00209
     30       9.1904      1.02927
     31       9.1904      1.02927
     32       9.4821     -0.02965
     33       9.4821     -0.02965
     34      11.2609     -0.00000
     35      13.7776      0.00000
     36      13.7776      0.00000
     37      19.7772      0.00000
[...]
     38      17.2372      0.00000
     39      17.2372      0.00000
     40      17.2372      0.00000

 k-point    81 :       0.4167    0.4167    0.4167
  band No.  band energies     occupation 
      1     -40.5616      1.00000
      2     -40.5616      1.00000
      3     -40.5616      1.00000
      4     -40.5472      1.00000
      5     -40.2588      1.00000
      6     -40.2588      1.00000
      7     -40.2588      1.00000
      8     -40.2489      1.00000
      9     -40.2489      1.00000
     10     -40.2489      1.00000
     11     -40.2392      1.00000
     12     -40.2392      1.00000
     13       4.2615      1.00000
     14       4.3881      1.00000
     15       4.3881      1.00000
     16       4.3881      1.00000
     17       6.4633      1.00000
     18       6.4633      1.00000
     19       6.4633      1.00000
     20       6.6498      1.00000
     21       6.6498      1.00000
     22       6.7459      1.00000
     23       6.7459      1.00000
     24       6.7459      1.00000
     25       8.4235      1.00000
     26       8.4235      1.00000
     27       8.4235      1.00000
     28       9.2235      1.03396
     29       9.2235      1.03396
     30       9.3575      0.32804
     31       9.4031      0.05329
     32       9.4031      0.05329
     33       9.4031      0.05329
     34      11.3163     -0.00000
     35      11.3163     -0.00000
     36      11.3163     -0.00000
     37      16.7170      0.00000
     38      16.7170      0.00000
     39      16.7170      0.00000
     40      17.8939      0.00000

 k-point    82 :       0.5000    0.4167    0.4167
  band No.  band energies     occupation 
      1     -40.5662      1.00000
      2     -40.5662      1.00000
      3     -40.5592      1.00000
      4     -40.5592      1.00000
      5     -40.2564      1.00000
      6     -40.2564      1.00000
      7     -40.2466      1.00000
      8     -40.2466      1.00000
      9     -40.2442      1.00000
     10     -40.2442      1.00000
     11     -40.2440      1.00000
     12     -40.2440      1.00000
     13       4.2822      1.00000
     14       4.2822      1.00000
     15       4.3448      1.00000
     16       4.3448      1.00000
     17       6.4926      1.00000
     18       6.4926      1.00000
     19       6.5795      1.00000
     20       6.5795      1.00000
     21       6.6605      1.00000
     22       6.6605      1.00000
     23       6.6987      1.00000
     24       6.6987      1.00000
     25       8.6465      1.00000
     26       8.6465      1.00000
     27       8.8578      1.00000
     28       8.8578      1.00000
     29       9.3648      0.27215
     30       9.3648      0.27215
     31       9.3722      0.21940
     32       9.3722      0.21940
     33      10.3044     -0.00000
     34      10.3044     -0.00000
     35      11.2611     -0.00000
     36      11.2611     -0.00000
     37      16.5360      0.00000
     38      16.5360      0.00000
     39      17.2026      0.00000
     40      17.2026      0.00000

 k-point    83 :       0.5000    0.5000    0.4167
  band No.  band energies     occupation 
      1     -40.5675      1.00000
      2     -40.5675      1.00000
      3     -40.5675      1.00000
      4     -40.5675      1.00000
      5     -40.2479      1.00000
      6     -40.2479      1.00000
      7     -40.2479      1.00000
      8     -40.2479      1.00000
      9     -40.2429      1.00000
     10     -40.2429      1.00000
     11     -40.2429      1.00000
     12     -40.2429      1.00000
     13       4.2680      1.00000
     14       4.2680      1.00000
     15       4.2680      1.00000
     16       4.2680      1.00000
     17       6.5691      1.00000
     18       6.5691      1.00000
     19       6.5691      1.00000
     20       6.5691      1.00000
     21       6.6312      1.00000
     22       6.6312      1.00000
     23       6.6312      1.00000
     24       6.6312      1.00000
     25       9.0329      1.00008
     26       9.0329      1.00008
     27       9.0329      1.00008
     28       9.0329      1.00008
     29       9.3373      0.49440
     30       9.3373      0.49440
     31       9.3373      0.49440
     32       9.3373      0.49440
     33      10.6395     -0.00000
     34      10.6395     -0.00000
     35      10.6395     -0.00000
     36      10.6395     -0.00000
     37      16.7181      0.00000
     38      16.7181      0.00000
     39      16.7181      0.00000
     40      16.7181      0.00000

 k-point    84 :       0.5000    0.5000    0.5000
  band No.  band energies     occupation 
      1     -40.5725      1.00000
      2     -40.5725      1.00000
      3     -40.5725      1.00000
      4     -40.5725      1.00000
      5     -40.2429      1.00000
      6     -40.2429      1.00000
      7     -40.2429      1.00000
      8     -40.2429      1.00000
      9     -40.2429      1.00000
     10     -40.2429      1.00000
     11     -40.2429      1.00000
     12     -40.2429      1.00000
     13       4.2203      1.00000
     14       4.2203      1.00000
     15       4.2203      1.00000
     16       4.2203      1.00000
     17       6.5929      1.00000
     18       6.5929      1.00000
     19       6.5929      1.00000
     20       6.5929      1.00000
     21       6.5929      1.00000
     22       6.5929      1.00000
     23       6.5929      1.00000
     24       6.5929      1.00000
     25       9.3919      0.10231
     26       9.3919      0.10231
     27       9.3919      0.10231
     28       9.3919      0.10231
     29       9.3919      0.10231
     30       9.3919      0.10231
     31       9.3919      0.10231
     32       9.3919      0.10231
     33      10.3573     -0.00000
     34      10.3573     -0.00000
     35      10.3573     -0.00000
     36      10.3573     -0.00000
     37      16.5437      0.00000
     38      16.5437      0.00000
     39      16.5437      0.00000
     40      16.5437      0.00000


--------------------------------------------------------------------------------------------------------


 soft charge-density along one line, spin component            1
         0         1         2         3         4         5         6         7         8         9
 total charge-density along one line
 
 soft charge-density along one line, spin component            2
         0         1         2         3         4         5         6         7         8         9
 total charge-density along one line
 
 pseudopotential strength for first ion, spin component:            1
-37.305  -0.000  -0.000   8.282   0.000   0.000  -0.000   0.000
 -0.000 -37.305  -0.000   0.000   8.282   0.000   0.000  -0.000
 -0.000  -0.000 -37.305   0.000   0.000   8.282  -0.000   0.000
  8.282   0.000   0.000   7.865  -0.000  -0.000   0.000  -0.000
  0.000   8.282   0.000  -0.000   7.865  -0.000  -0.000   0.000
  0.000   0.000   8.282  -0.000  -0.000   7.865   0.000  -0.000
 -0.000   0.000  -0.000   0.000  -0.000   0.000  -2.362  -0.000
  0.000  -0.000   0.000  -0.000   0.000  -0.000  -0.000  -2.362
  0.000   0.000   0.000  -0.000  -0.000  -0.000   0.000   0.000
  0.000  -0.000   0.000  -0.000   0.000  -0.000  -0.000  -0.000
  0.000   0.000   0.000  -0.000  -0.000  -0.000  -0.000   0.000
 -0.000   0.000  -0.000   0.000  -0.000   0.000  -2.019  -0.000
  0.000  -0.000   0.000  -0.000   0.000  -0.000  -0.000  -2.019
  0.000   0.000   0.000  -0.000  -0.000  -0.000   0.000   0.000
  0.000  -0.000   0.000  -0.000   0.000  -0.000  -0.000  -0.000
  0.000   0.000   0.000  -0.000  -0.000  -0.000  -0.000   0.000
  0.000  -0.000   0.000   0.000  -0.000   0.000   0.000   0.000
  0.000  -0.000   0.000   0.000  -0.000   0.000   0.000   0.000
 pseudopotential strength for first ion, spin component:            2
-37.191  -0.000  -0.000   8.223   0.000   0.000  -0.000   0.000
 -0.000 -37.191  -0.000   0.000   8.223   0.000  -0.000  -0.000
 -0.000  -0.000 -37.191   0.000   0.000   8.223  -0.000  -0.000
  8.223   0.000   0.000   7.881  -0.000  -0.000   0.000  -0.000
  0.000   8.223   0.000  -0.000   7.881  -0.000   0.000   0.000
  0.000   0.000   8.223  -0.000  -0.000   7.881   0.000   0.000
 -0.000  -0.000  -0.000   0.000   0.000   0.000  -2.238  -0.000
  0.000  -0.000  -0.000  -0.000   0.000   0.000  -0.000  -2.238
  0.000   0.000   0.000  -0.000  -0.000  -0.000   0.000   0.000
 -0.000  -0.000   0.000   0.000   0.000  -0.000  -0.000  -0.000
  0.000   0.000  -0.000  -0.000  -0.000  -0.000  -0.000   0.000
 -0.000  -0.000  -0.000   0.000   0.000   0.000  -1.882  -0.000
  0.000  -0.000  -0.000  -0.000   0.000   0.000  -0.000  -1.882
  0.000   0.000   0.000  -0.000  -0.000  -0.000   0.000   0.000
 -0.000  -0.000   0.000   0.000   0.000  -0.000  -0.000  -0.000
  0.000   0.000  -0.000  -0.000  -0.000  -0.000  -0.000   0.000
  0.000  -0.000   0.000   0.000  -0.000   0.000   0.000   0.000
  0.000  -0.000   0.000   0.000  -0.000   0.000   0.000   0.000
 total augmentation occupancy for first ion, spin component:            1
  1.998   0.000   0.000  -0.014  -0.000  -0.000  -0.000  -0.000   0.000  -0.000   0.000   0.000   0.000  -0.000   0.000  -0.000
  0.000   1.998   0.000  -0.000  -0.014  -0.000  -0.000   0.000  -0.000  -0.000   0.000  -0.000   0.000   0.000  -0.000  -0.000
  0.000   0.000   1.998  -0.000  -0.000  -0.014  -0.000  -0.000   0.000  -0.000  -0.000   0.000  -0.000   0.000   0.000  -0.000
 -0.014  -0.000  -0.000   0.104   0.000   0.000   0.000   0.000   0.000  -0.000  -0.000   0.000   0.000  -0.000   0.000   0.000
 -0.000  -0.014  -0.000   0.000   0.104   0.000  -0.000  -0.000   0.000  -0.000   0.000   0.000   0.000   0.000   0.000   0.000
 -0.000  -0.000  -0.014   0.000   0.000   0.104  -0.000   0.000  -0.000   0.000  -0.000   0.000   0.000   0.000  -0.000   0.000
 -0.000  -0.000  -0.000   0.000  -0.000  -0.000   2.758   0.000  -0.000   0.000   0.000  -0.737  -0.000   0.000  -0.000  -0.000
 -0.000   0.000  -0.000   0.000  -0.000   0.000   0.000   2.758   0.000   0.000  -0.000  -0.000  -0.737  -0.000  -0.000   0.000
  0.000  -0.000   0.000   0.000  -0.000  -0.000  -0.000   0.000   2.530   0.000   0.000   0.000  -0.000  -0.545  -0.000  -0.000
 -0.000  -0.000  -0.000  -0.000  -0.000   0.000   0.000   0.000   0.000   2.758   0.000  -0.000  -0.000  -0.000  -0.737  -0.000
  0.000   0.000  -0.000  -0.000   0.000  -0.000   0.000  -0.000   0.000   0.000   2.530  -0.000   0.000  -0.000  -0.000  -0.545
  0.000  -0.000   0.000   0.000   0.000   0.000  -0.737  -0.000   0.000  -0.000  -0.000   0.472   0.000  -0.000   0.000   0.000
  0.000   0.000  -0.000   0.000   0.000   0.000  -0.000  -0.737  -0.000  -0.000   0.000   0.000   0.472   0.000   0.000  -0.000
 -0.000   0.000   0.000   0.000   0.000  -0.000   0.000  -0.000  -0.545  -0.000  -0.000  -0.000   0.000   0.428   0.000   0.000
  0.000  -0.000   0.000   0.000   0.000  -0.000  -0.000  -0.000  -0.000  -0.737  -0.000   0.000   0.000   0.000   0.472   0.000
 -0.000  -0.000  -0.000   0.000   0.000  -0.000  -0.000   0.000  -0.000  -0.000  -0.545   0.000  -0.000   0.000   0.000   0.428
 -0.000  -0.000   0.000  -0.000   0.000   0.000   0.000  -0.000   0.000  -0.000   0.000   0.000   0.000  -0.000   0.000   0.000
  0.000   0.000   0.000  -0.000  -0.000   0.000   0.000   0.000   0.000  -0.000  -0.000   0.000   0.000   0.000  -0.000  -0.000
 total augmentation occupancy for first ion, spin component:            2
  0.000   0.000   0.000   0.000   0.000   0.000  -0.000  -0.000   0.000  -0.000  -0.000  -0.000  -0.000  -0.000   0.000   0.000
  0.000   0.000   0.000   0.000   0.000  -0.000  -0.000  -0.000  -0.000   0.000   0.000  -0.000   0.000   0.000   0.000   0.000
  0.000   0.000   0.000   0.000  -0.000   0.000  -0.000   0.000   0.000   0.000  -0.000  -0.000  -0.000   0.000   0.000   0.000
  0.000   0.000   0.000  -0.002  -0.000  -0.000   0.000   0.000  -0.000   0.000   0.000  -0.000   0.000   0.000   0.000  -0.000
  0.000   0.000  -0.000  -0.000  -0.002  -0.000  -0.000  -0.000   0.000  -0.000   0.000  -0.000  -0.000  -0.000  -0.000   0.000
  0.000  -0.000   0.000  -0.000  -0.000  -0.002   0.000   0.000  -0.000  -0.000  -0.000  -0.000  -0.000  -0.000  -0.000   0.000
 -0.000  -0.000  -0.000   0.000  -0.000   0.000  -0.039  -0.000   0.000  -0.000  -0.000   0.041   0.000  -0.000   0.000   0.000
 -0.000  -0.000   0.000   0.000  -0.000   0.000  -0.000  -0.039  -0.000  -0.000   0.000   0.000   0.041   0.000   0.000  -0.000
  0.000   0.000   0.000   0.000  -0.000   0.000   0.000  -0.000  -0.029  -0.000  -0.000  -0.000   0.000   0.024   0.000   0.000
 -0.000   0.000   0.000   0.000  -0.000  -0.000  -0.000  -0.000  -0.000  -0.039  -0.000   0.000   0.000   0.000   0.041   0.000
  0.000   0.000  -0.000  -0.000   0.000  -0.000  -0.000   0.000  -0.000  -0.000  -0.029   0.000  -0.000   0.000   0.000   0.024
 -0.000  -0.000  -0.000  -0.000  -0.000  -0.000   0.041   0.000  -0.000   0.000   0.000   0.025   0.000  -0.000   0.000   0.000
 -0.000   0.000  -0.000   0.000  -0.000  -0.000   0.000   0.041   0.000   0.000  -0.000   0.000   0.025   0.000   0.000   0.000
  0.000   0.000   0.000  -0.000  -0.000   0.000  -0.000   0.000   0.024   0.000   0.000  -0.000   0.000   0.008   0.000   0.000
  0.000   0.000   0.000   0.000  -0.000  -0.000   0.000   0.000   0.000   0.041   0.000   0.000   0.000   0.000   0.025  -0.000
  0.000   0.000   0.000   0.000   0.000  -0.000   0.000  -0.000   0.000   0.000   0.024   0.000   0.000   0.000  -0.000   0.008
 -0.000   0.000   0.000  -0.000   0.000  -0.000   0.000  -0.000  -0.000  -0.000  -0.000   0.000   0.000   0.000   0.000   0.000
  0.000  -0.000  -0.000  -0.000  -0.000   0.000   0.000   0.000   0.000   0.000   0.000  -0.000   0.000  -0.000   0.000  -0.000


------------------------ aborting loop because EDIFF is reached ----------------------------------------





 total charge

# of ion       s       p       d       tot
------------------------------------------
    1        0.315   6.173   7.978  14.466
    2        0.315   6.173   7.978  14.466
    3        0.315   6.173   7.978  14.466
    4        0.315   6.173   7.978  14.466
--------------------------------------------------
tot          1.259  24.690  31.914  57.863



 magnetization (x)

# of ion       s       p       d       tot
------------------------------------------
    1       -0.002  -0.003   0.254   0.249
    2       -0.002  -0.003   0.254   0.249
    3       -0.002  -0.003   0.254   0.249
    4       -0.002  -0.003   0.254   0.249
--------------------------------------------------
tot         -0.007  -0.012   1.017   0.998
 
    CHARGE:  cpu time      0.5444: real time      0.5444
    FORLOC:  cpu time      0.0008: real time      0.0008
    FORNL :  cpu time      0.9198: real time      0.9199
    FORCOR:  cpu time      0.4576: real time      0.4576
    FORHAR:  cpu time      0.0043: real time      0.0043
    MIXING:  cpu time      0.0014: real time      0.0014
    OFIELD:  cpu time      0.0000: real time      0.0000

 ---------------------------------------------------------------------------------------------

         DFTD3 V3.0 Rev 1        
 DF pbe       
 parameters
 k1-k3        =   16.0000    1.3333   -4.0000
 Edisp (eV)   -2.62093

 E6    (eV) :    -1.4629
 E8    (eV) :    -1.1581
 % E8        : 44.19
    FORVDW:  cpu time      0.0073: real time      0.0073

 VOLUME and BASIS-vectors are now :
 -----------------------------------------------------------------------------
  energy-cutoff  :      520.00
  volume of cell :       60.11
      direct lattice vectors                 reciprocal lattice vectors
     3.917301575  0.000000000  0.000000000     0.255277767 -0.000000000  0.000000000
     0.000000000  3.917301575  0.000000000     0.000000000  0.255277767  0.000000000
     0.000000000  0.000000000  3.917301575    -0.000000000 -0.000000000  0.255277767

  length of vectors
     3.917301575  3.917301575  3.917301575     0.255277767  0.255277767  0.255277767


 FORCES acting on ions
    electron-ion (+dipol)            ewald-force                    non-local-force                 convergence-correction
 -----------------------------------------------------------------------------------------------
   0.345E-13 -.169E-13 -.112E-12   -.366E-13 -.348E-13 0.417E-14   -.621E-25 0.000E+00 -.103E-24   -.518E-13 0.120E-14 -.554E-13
   0.276E-13 0.491E-12 0.394E-12   -.388E-13 0.552E-14 0.106E-13   0.443E-26 0.000E+00 0.517E-25   -.555E-13 0.555E-13 0.613E-14
   0.498E-12 -.202E-13 -.157E-11   0.424E-13 -.761E-14 0.104E-13   -.812E-26 -.969E-25 0.103E-24   0.295E-13 -.203E-13 0.258E-13
   0.509E-12 0.661E-11 -.466E-11   0.402E-13 0.327E-13 -.238E-13   0.961E-25 0.646E-26 0.517E-25   0.212E-13 0.804E-13 -.596E-13
 -----------------------------------------------------------------------------------------------
   0.107E-11 0.706E-11 -.595E-11   0.725E-14 -.417E-14 0.136E-14   0.304E-25 -.905E-25 0.103E-24   -.566E-13 0.117E-12 -.831E-13
 
 
 POSITION                                       TOTAL-FORCE (eV/Angst)
 -----------------------------------------------------------------------------------
      0.00000      0.00000      0.00000         0.000000     -0.000000      0.000000
      0.00000      1.95865      1.95865        -0.000000     -0.000000     -0.000000
      1.95865      0.00000      1.95865        -0.000000     -0.000000     -0.000000
      1.95865      1.95865      0.00000         0.000000      0.000000      0.000000
 -----------------------------------------------------------------------------------
    total drift:                                0.000000      0.000000     -0.000000


--------------------------------------------------------------------------------------------------------



  FREE ENERGIE OF THE ION-ELECTRON SYSTEM (eV)
  ---------------------------------------------------
  free  energy   TOTEN  =       -23.44917832 eV

  energy  without entropy=      -23.44905066  energy(sigma->0) =      -23.44913577
 


--------------------------------------------------------------------------------------------------------


    POTLOK:  cpu time      0.4587: real time      0.4587


--------------------------------------------------------------------------------------------------------


     LOOP+:  cpu time    112.1040: real time    114.4409
    4ORBIT:  cpu time      0.0000: real time      0.0000



 total charge

# of ion       s       p       d       tot
------------------------------------------
    1        0.315   6.173   7.978  14.466
    2        0.315   6.173   7.978  14.466
    3        0.315   6.173   7.978  14.466
    4        0.315   6.173   7.978  14.466
--------------------------------------------------
tot          1.259  24.690  31.914  57.863



 magnetization (x)

# of ion       s       p       d       tot
------------------------------------------
    1       -0.002  -0.003   0.254   0.249
    2       -0.002  -0.003   0.254   0.249
    3       -0.002  -0.003   0.254   0.249
    4       -0.002  -0.003   0.254   0.249
--------------------------------------------------
tot         -0.007  -0.012   1.017   0.998
 

 total amount of memory used by VASP MPI-rank0   110691. kBytes
=======================================================================

   base      :      30000. kBytes
   nonl-proj :      20039. kBytes
   fftplans  :       8118. kBytes
   grid      :       6177. kBytes
   one-center:        124. kBytes
   wavefun   :      46233. kBytes
 
  
  
 General timing and accounting informations for this job:
 ========================================================
  
                  Total CPU time used (sec):      113.871
                            User time (sec):      111.017
                          System time (sec):        2.854
                         Elapsed time (sec):      116.544
  
                   Maximum memory used (kb):      407936.
                   Average memory used (kb):          N/A
  
                          Minor page faults:       477677
                          Major page faults:            4
                 Voluntary context switches:          250
