133
Lattice="12.21437083684855 0.0 7e-16 1.7e-15 10.811692246786171 7e-16 0.0 0.0 30.687574482242482" Properties=species:S:1:pos:R:3:move_mask:L:1:momenta:R:3 adsorbate_info="_JSON {\"site\": {\"coordinates\": [9.669741997813155, 5.40586575349796, 12.06982461246805], \"connectivity\": 3, \"topology\": [29, 42, 65], \"n_vector\": [0.04449584394290086, -0.08704467501876512, 0.9952102011247104], \"h_vector\": [0.7621812103924479, 0.6435128735522124, -0.07050520617144222], \"site_formula\": {\"O\": 2, \"Pd\": 1}}, \"smiles\": \"ClOC\", \"mdf\": 2.04525540545215, \"adsorbate_formula\": \"CH3O\"}" mace_E=-698.5735921707301 converged=T n_steps=53 d_min=1.9951442001431996 site_type=unknown dE_rel_meV=0 original_idx=312 rank=203 E_MACE=-698.5854583067857 pbc="T T T"
O        2.94924411       6.71234167      12.15470098  T       0.00000000       0.00000000       0.00000000
O        6.01216122       1.30490364      12.16980659  T       0.00000000       0.00000000       0.00000000
O        6.00010681       4.09764076      12.17175536  T       0.00000000       0.00000000       0.00000000
O        6.04204522       1.35452222       9.16878663  T       0.00000000       0.00000000       0.00000000
O        6.03859189       4.04903816       9.17031271  T       0.00000000       0.00000000       0.00000000
O        6.10718343       1.35539432       6.10801899  F       0.00000000       0.00000000       0.00000000
O        6.10718534       4.05045008       6.10801162  F       0.00000000       0.00000000       0.00000000
O        6.10718542       1.35146153       3.02679635  F       0.00000000       0.00000000       0.00000000
O        6.10718542       4.05438459       3.02679635  F       0.00000000       0.00000000       0.00000000
O        9.06769723       9.50598613      12.16747443  T       0.00000000       0.00000000       0.00000000
O        2.95939534       9.50675149      12.15678947  T       0.00000000       0.00000000       0.00000000
O        2.98647021       6.75985920       9.16285406  T       0.00000000       0.00000000       0.00000000
O        2.98841269       9.46002441       9.15895436  T       0.00000000       0.00000000       0.00000000
O        3.05359341       6.76124998       6.10801980  F       0.00000000       0.00000000       0.00000000
O        3.05359360       9.45629444       6.10802097  F       0.00000000       0.00000000       0.00000000
O        3.05359271       6.75730765       3.02679635  F       0.00000000       0.00000000       0.00000000
O        3.05359271       9.46023072       3.02679635  F       0.00000000       0.00000000       0.00000000
O        2.95937117       1.30491680      12.15698871  T       0.00000000       0.00000000       0.00000000
O        6.10718542       9.46023072       3.02679635  F       0.00000000       0.00000000       0.00000000
O        6.10718542       6.75730765       3.02679635  F       0.00000000       0.00000000       0.00000000
O        6.10718028       9.45628983       6.10801454  F       0.00000000       0.00000000       0.00000000
O        6.10718760       6.76124043       6.10802244  F       0.00000000       0.00000000       0.00000000
O        9.08849078       6.76307877       9.18191638  T       0.00000000       0.00000000       0.00000000
O        9.09424750       9.45762428       9.16595277  T       0.00000000       0.00000000       0.00000000
O        9.16078073       6.76123572       6.10801818  F       0.00000000       0.00000000       0.00000000
O        9.16078059       9.45627785       6.10801483  F       0.00000000       0.00000000       0.00000000
O        9.16077813       6.75730765       3.02679635  F       0.00000000       0.00000000       0.00000000
O        9.16077813       9.46023072       3.02679635  F       0.00000000       0.00000000       0.00000000
O        9.06760151       1.30598248      12.16752096  T       0.00000000       0.00000000       0.00000000
O        9.03845308       4.09203440      12.16467453  T       0.00000000       0.00000000       0.00000000
O        2.94916653       4.09942425      12.15465200  T       0.00000000       0.00000000       0.00000000
O        9.09424388       1.35419581       9.16606284  T       0.00000000       0.00000000       0.00000000
O        9.16077827       1.35539012       6.10801450  F       0.00000000       0.00000000       0.00000000
O        9.16078421       4.05045012       6.10800209  F       0.00000000       0.00000000       0.00000000
O        9.16077813       1.35146153       3.02679635  F       0.00000000       0.00000000       0.00000000
O        9.16077813       4.05438459       3.02679635  F       0.00000000       0.00000000       0.00000000
O        6.00000606       6.71433987      12.17149159  T       0.00000000       0.00000000       0.00000000
O        6.01222007       9.50701078      12.16969184  T       0.00000000       0.00000000       0.00000000
O        6.03865707       6.76281423       9.17016533  T       0.00000000       0.00000000       0.00000000
O        6.04215451       9.45751541       9.16855173  T       0.00000000       0.00000000       0.00000000
O        9.08819333       4.04880323       9.18179044  T       0.00000000       0.00000000       0.00000000
O        2.98842081       1.35161015       9.15903909  T       0.00000000       0.00000000       0.00000000
O        9.03955019       6.71907604      12.16457857  T       0.00000000       0.00000000       0.00000000
O       12.12232435       9.51013314      12.14037817  T       0.00000000       0.00000000       0.00000000
O        0.00000000       6.75730765       3.02679635  F       0.00000000       0.00000000       0.00000000
O        2.98649622       4.05167538       9.16295724  T       0.00000000       0.00000000       0.00000000
O       -0.09186815       1.30166507      12.14035704  T       0.00000000       0.00000000       0.00000000
O        0.00000951       9.45630243       6.10801529  F       0.00000000       0.00000000       0.00000000
O       12.13525070       4.08275648      12.15324723  T       0.00000000       0.00000000       0.00000000
O        0.00000182       6.76124509       6.10800952  F       0.00000000       0.00000000       0.00000000
O       -0.06846661       9.46013200       9.15460542  T       0.00000000       0.00000000       0.00000000
O       -0.06846627       1.35126570       9.15449101  T       0.00000000       0.00000000       0.00000000
O       -0.07162724       6.75549345       9.17550630  T       0.00000000       0.00000000       0.00000000
O       12.14260499       4.05619731       9.17517910  T       0.00000000       0.00000000       0.00000000
O       12.13445645       6.72856293      12.15446796  T       0.00000000       0.00000000       0.00000000
O        0.00000448       1.35539672       6.10801283  F       0.00000000       0.00000000       0.00000000
O        0.00000331       4.05045002       6.10801189  F       0.00000000       0.00000000       0.00000000
O        3.05359271       4.05438459       3.02679635  F       0.00000000       0.00000000       0.00000000
O        0.00000000       9.46023072       3.02679635  F       0.00000000       0.00000000       0.00000000
O        3.05359105       4.05044320       6.10802763  F       0.00000000       0.00000000       0.00000000
O        3.05359271       1.35146153       3.02679635  F       0.00000000       0.00000000       0.00000000
O        3.05359652       1.35540103       6.10801944  F       0.00000000       0.00000000       0.00000000
O        0.00000000       4.05438459       3.02679635  F       0.00000000       0.00000000       0.00000000
O        0.00000000       1.35146153       3.02679635  F       0.00000000       0.00000000       0.00000000
Pd       7.51512649       5.40598735      12.00794094  T       0.00000000       0.00000000       0.00000000
Pd      10.58941794       5.40502949      12.13210292  T       0.00000000       0.00000000       0.00000000
Pd       0.00000000       8.10876919       1.50000000  F       0.00000000       0.00000000       0.00000000
Pd       9.07375699       8.11218242      10.76402672  T       0.00000000       0.00000000       0.00000000
Pd       1.52679635       0.00000000       3.02679635  F       0.00000000       0.00000000       0.00000000
Pd       9.16077813       2.70292306       1.50000000  F       0.00000000       0.00000000       0.00000000
Pd      10.68757448       0.00000000       3.02679635  F       0.00000000       0.00000000       0.00000000
Pd      10.61255685       5.40590865       9.19053922  T       0.00000000       0.00000000       0.00000000
Pd       1.43496571       0.00001146      12.00137453  T       0.00000000       0.00000000       0.00000000
Pd       9.16077900       2.70292450       4.56559698  F       0.00000000       0.00000000       0.00000000
Pd      10.68756280      10.81168006       6.11657659  F       0.00000000       0.00000000       0.00000000
Pd       9.16077776       8.10875607       4.56559406  F       0.00000000       0.00000000       0.00000000
Pd       1.52678677       0.00000067       6.11658292  F       0.00000000       0.00000000       0.00000000
Pd       9.12980632       8.10564343       7.65095185  T       0.00000000       0.00000000       0.00000000
Pd       9.12969247       2.70608672       7.65098088  T       0.00000000       0.00000000       0.00000000
Pd      10.61877245      -0.00003644       9.12982235  T       0.00000000       0.00000000       0.00000000
Pd       0.00000135       2.70292705       4.56560641  F       0.00000000       0.00000000       0.00000000
Pd       1.45973093      10.81159328       9.12122126  T       0.00000000       0.00000000       0.00000000
Pd       9.07322200       2.69983166      10.76411716  T       0.00000000       0.00000000       0.00000000
Pd       6.02096075       8.11118606      10.76661284  T       0.00000000       0.00000000       0.00000000
Pd      10.59267701      10.81189795      12.00508708  T       0.00000000       0.00000000       0.00000000
Pd      -0.04033393       2.70713236       7.64741644  T       0.00000000       0.00000000       0.00000000
Pd      10.68757280       5.40584816       6.11657764  F       0.00000000       0.00000000       0.00000000
Pd       9.16077813       8.10876919       1.50000000  F       0.00000000       0.00000000       0.00000000
Pd      10.68757448       5.40584612       3.02679635  F       0.00000000       0.00000000       0.00000000
Pd      12.13192866       2.70113419      10.74376333  T       0.00000000       0.00000000       0.00000000
Pd       4.51543521       0.00006456       9.13378708  T       0.00000000       0.00000000       0.00000000
Pd       7.63397856       5.40585179       6.11657833  F       0.00000000       0.00000000       0.00000000
Pd       7.56182920       5.40596843       9.14674447  T       0.00000000       0.00000000       0.00000000
Pd       4.47289712       5.40600093      12.01342572  T       0.00000000       0.00000000       0.00000000
Pd       2.96887845       8.11046029      10.75391534  T       0.00000000       0.00000000       0.00000000
Pd       4.58038906       0.00000000       3.02679635  F       0.00000000       0.00000000       0.00000000
Pd       4.51268689       5.40583860       9.13444145  T       0.00000000       0.00000000       0.00000000
Pd       3.02172650       8.10901699       7.64722717  T       0.00000000       0.00000000       0.00000000
Pd       3.05359494       2.70292824       4.56560681  F       0.00000000       0.00000000       0.00000000
Pd       3.05359271       2.70292306       1.50000000  F       0.00000000       0.00000000       0.00000000
Pd       4.58039501       5.40584640       6.11658908  F       0.00000000       0.00000000       0.00000000
Pd       4.58040505      10.81168838       6.11658203  F       0.00000000       0.00000000       0.00000000
Pd       4.58038906       5.40584612       3.02679635  F       0.00000000       0.00000000       0.00000000
Pd       3.05359271       8.10876919       1.50000000  F       0.00000000       0.00000000       0.00000000
Pd       3.02172259       2.70259158       7.64726193  T       0.00000000       0.00000000       0.00000000
Pd       4.48608425       0.00003895      12.01849450  T       0.00000000       0.00000000       0.00000000
Pd       2.96881399       2.70112388      10.75398663  T       0.00000000       0.00000000       0.00000000
Pd       3.05359569       8.10876742       4.56559865  F       0.00000000       0.00000000       0.00000000
Pd       6.10718542       2.70292306       1.50000000  F       0.00000000       0.00000000       0.00000000
Pd       7.63398177       0.00000000       3.02679635  F       0.00000000       0.00000000       0.00000000
Pd       1.42487743       5.40594218      12.00816791  T       0.00000000       0.00000000       0.00000000
Pd       6.07340050       8.10895481       7.65104389  T       0.00000000       0.00000000       0.00000000
Pd       0.00000079       8.10876600       4.56559869  F       0.00000000       0.00000000       0.00000000
Pd       6.10718651       8.10875952       4.56558968  F       0.00000000       0.00000000       0.00000000
Pd       1.52680247       5.40584247       6.11658534  F       0.00000000       0.00000000       0.00000000
Pd       7.63398177       5.40584612       3.02679635  F       0.00000000       0.00000000       0.00000000
Pd       6.10718542       8.10876919       1.50000000  F       0.00000000       0.00000000       0.00000000
Pd      -0.04032939       8.10446969       7.64749072  T       0.00000000       0.00000000       0.00000000
Pd       7.54011108      10.81186740      12.02030031  T       0.00000000       0.00000000       0.00000000
Pd       6.02097371       2.70080215      10.76682483  T       0.00000000       0.00000000       0.00000000
Pd       1.45888522       5.40577178       9.14031816  T       0.00000000       0.00000000       0.00000000
Pd       7.56717535       0.00014204       9.13606196  T       0.00000000       0.00000000       0.00000000
Pd       6.07335736       2.70283448       7.65111783  T       0.00000000       0.00000000       0.00000000
Pd      12.13166476       8.11030024      10.74425318  T       0.00000000       0.00000000       0.00000000
Pd       7.63399583      10.81167532       6.11657540  F       0.00000000       0.00000000       0.00000000
Pd       6.10718592       2.70292523       4.56558724  F       0.00000000       0.00000000       0.00000000
Pd       1.52679635       5.40584612       3.02679635  F       0.00000000       0.00000000       0.00000000
Pd       0.00000000       2.70292306       1.50000000  F       0.00000000       0.00000000       0.00000000
O       10.70755742       5.39550264      14.12613989  T       0.00000000       0.00000000       0.00000000
C        9.50122915       5.42432377      14.85719350  T       0.00000000       0.00000000       0.00000000
H        9.84072784       5.38865895      15.91531387  T       0.00000000       0.00000000       0.00000000
H        8.91589072       6.35662443      14.70665320  T       0.00000000       0.00000000       0.00000000
H        8.84841056       4.54406756      14.67106876  T       0.00000000       0.00000000       0.00000000
