133
Lattice="12.21437083684855 0.0 7e-16 1.7e-15 10.811692246786171 7e-16 0.0 0.0 30.687574482242482" Properties=species:S:1:pos:R:3:move_mask:L:1:momenta:R:3 adsorbate_info="_JSON {\"site\": {\"coordinates\": [4.071451405182264, 7.637473490028394, 12.116886746738942], \"connectivity\": 3, \"topology\": [0, 10, 36], \"n_vector\": [0.06666711640438598, 0.09880240031119852, 0.9928713820445575], \"h_vector\": [-1.3752049614725222e-05, -0.9999999998391675, -1.1512867985557533e-05], \"site_formula\": {\"O\": 3}}, \"smiles\": \"ClOC\", \"mdf\": 2.115309979164666, \"adsorbate_formula\": \"CH3O\"}" mace_E=-698.6216659189998 converged=T n_steps=73 d_min=2.5080796173908015 site_type=unknown dE_rel_meV=0 original_idx=123 rank=402 E_MACE=-697.4949458292189 pbc="T T T"
O        3.07218213       6.74668672      12.14144323  T       0.00000000       0.00000000       0.00000000
O        6.14907805       1.32324242      12.16436665  T       0.00000000       0.00000000       0.00000000
O        6.16220774       4.11104663      12.15467550  T       0.00000000       0.00000000       0.00000000
O        6.13821631       1.36214955       9.16616072  T       0.00000000       0.00000000       0.00000000
O        6.13704136       4.06403872       9.17643178  T       0.00000000       0.00000000       0.00000000
O        6.10718343       1.35539432       6.10801899  F       0.00000000       0.00000000       0.00000000
O        6.10718534       4.05045008       6.10801162  F       0.00000000       0.00000000       0.00000000
O        6.10718542       1.35146153       3.02679635  F       0.00000000       0.00000000       0.00000000
O        6.10718542       4.05438459       3.02679635  F       0.00000000       0.00000000       0.00000000
O        9.20378946       9.52819381      12.16477598  T       0.00000000       0.00000000       0.00000000
O        3.09265083       9.52595252      12.14907653  T       0.00000000       0.00000000       0.00000000
O        3.08474216       6.77095829       9.17280919  T       0.00000000       0.00000000       0.00000000
O        3.08309557       9.47241815       9.14937378  T       0.00000000       0.00000000       0.00000000
O        3.05359341       6.76124998       6.10801980  F       0.00000000       0.00000000       0.00000000
O        3.05359360       9.45629444       6.10802097  F       0.00000000       0.00000000       0.00000000
O        3.05359271       6.75730765       3.02679635  F       0.00000000       0.00000000       0.00000000
O        3.05359271       9.46023072       3.02679635  F       0.00000000       0.00000000       0.00000000
O        3.09468793       1.32174284      12.15008271  T       0.00000000       0.00000000       0.00000000
O        6.10718542       9.46023072       3.02679635  F       0.00000000       0.00000000       0.00000000
O        6.10718542       6.75730765       3.02679635  F       0.00000000       0.00000000       0.00000000
O        6.10718028       9.45628983       6.10801454  F       0.00000000       0.00000000       0.00000000
O        6.10718760       6.76124043       6.10802244  F       0.00000000       0.00000000       0.00000000
O        9.19324755       6.77067818       9.17230516  T       0.00000000       0.00000000       0.00000000
O        9.18914764       9.46489978       9.16364879  T       0.00000000       0.00000000       0.00000000
O        9.16078073       6.76123572       6.10801818  F       0.00000000       0.00000000       0.00000000
O        9.16078059       9.45627785       6.10801483  F       0.00000000       0.00000000       0.00000000
O        9.16077813       6.75730765       3.02679635  F       0.00000000       0.00000000       0.00000000
O        9.16077813       9.46023072       3.02679635  F       0.00000000       0.00000000       0.00000000
O        9.20225646       1.32685613      12.16368191  T       0.00000000       0.00000000       0.00000000
O        9.20730695       4.11531268      12.15381956  T       0.00000000       0.00000000       0.00000000
O        3.08060145       4.11113800      12.13496221  T       0.00000000       0.00000000       0.00000000
O        9.19023910       1.36224752       9.16387491  T       0.00000000       0.00000000       0.00000000
O        9.16077827       1.35539012       6.10801450  F       0.00000000       0.00000000       0.00000000
O        9.16078421       4.05045012       6.10800209  F       0.00000000       0.00000000       0.00000000
O        9.16077813       1.35146153       3.02679635  F       0.00000000       0.00000000       0.00000000
O        9.16077813       4.05438459       3.02679635  F       0.00000000       0.00000000       0.00000000
O        6.17440994       6.74446857      12.15050152  T       0.00000000       0.00000000       0.00000000
O        6.14915069       9.52468654      12.17230097  T       0.00000000       0.00000000       0.00000000
O        6.14272139       6.77255037       9.18245048  T       0.00000000       0.00000000       0.00000000
O        6.13857836       9.47086775       9.15859857  T       0.00000000       0.00000000       0.00000000
O        9.19183094       4.06064362       9.15853046  T       0.00000000       0.00000000       0.00000000
O        3.08224900       1.35792054       9.15592623  T       0.00000000       0.00000000       0.00000000
O        9.20442746       6.73140603      12.17242096  T       0.00000000       0.00000000       0.00000000
O       12.25294497       9.52922445      12.16274071  T       0.00000000       0.00000000       0.00000000
O        0.00000000       6.75730765       3.02679635  F       0.00000000       0.00000000       0.00000000
O        3.08470854       4.06638866       9.16812414  T       0.00000000       0.00000000       0.00000000
O        0.04132225       1.32815963      12.15472193  T       0.00000000       0.00000000       0.00000000
O        0.00000951       9.45630243       6.10801529  F       0.00000000       0.00000000       0.00000000
O       12.25501957       4.11851122      12.14353757  T       0.00000000       0.00000000       0.00000000
O        0.00000182       6.76124509       6.10800952  F       0.00000000       0.00000000       0.00000000
O        0.02588452       9.46544501       9.16149429  T       0.00000000       0.00000000       0.00000000
O        0.02760401       1.36089960       9.15796679  T       0.00000000       0.00000000       0.00000000
O        0.02699567       6.77214607       9.17147040  T       0.00000000       0.00000000       0.00000000
O       12.24581347       4.06458715       9.15281614  T       0.00000000       0.00000000       0.00000000
O       12.25571944       6.73173945      12.17192221  T       0.00000000       0.00000000       0.00000000
O        0.00000448       1.35539672       6.10801283  F       0.00000000       0.00000000       0.00000000
O        0.00000331       4.05045002       6.10801189  F       0.00000000       0.00000000       0.00000000
O        3.05359271       4.05438459       3.02679635  F       0.00000000       0.00000000       0.00000000
O        0.00000000       9.46023072       3.02679635  F       0.00000000       0.00000000       0.00000000
O        3.05359105       4.05044320       6.10802763  F       0.00000000       0.00000000       0.00000000
O        3.05359271       1.35146153       3.02679635  F       0.00000000       0.00000000       0.00000000
O        3.05359652       1.35540103       6.10801944  F       0.00000000       0.00000000       0.00000000
O        0.00000000       4.05438459       3.02679635  F       0.00000000       0.00000000       0.00000000
O        0.00000000       1.35146153       3.02679635  F       0.00000000       0.00000000       0.00000000
Pd       7.68420361       5.42185219      12.01405446  T       0.00000000       0.00000000       0.00000000
Pd      10.73042168       5.42636827      12.01163891  T       0.00000000       0.00000000       0.00000000
Pd       0.00000000       8.10876919       1.50000000  F       0.00000000       0.00000000       0.00000000
Pd       9.19990363       8.12517484      10.76816851  T       0.00000000       0.00000000       0.00000000
Pd       1.52679635       0.00000000       3.02679635  F       0.00000000       0.00000000       0.00000000
Pd       9.16077813       2.70292306       1.50000000  F       0.00000000       0.00000000       0.00000000
Pd      10.68757448       0.00000000       3.02679635  F       0.00000000       0.00000000       0.00000000
Pd      10.71816021       5.41597261       9.13592757  T       0.00000000       0.00000000       0.00000000
Pd       1.56567488       0.02056566      12.00765734  T       0.00000000       0.00000000       0.00000000
Pd       9.16077900       2.70292450       4.56559698  F       0.00000000       0.00000000       0.00000000
Pd      10.68756280      10.81168006       6.11657659  F       0.00000000       0.00000000       0.00000000
Pd       9.16077776       8.10875607       4.56559406  F       0.00000000       0.00000000       0.00000000
Pd       1.52678677       0.00000067       6.11658292  F       0.00000000       0.00000000       0.00000000
Pd       9.17563521       8.11211223       7.65030398  T       0.00000000       0.00000000       0.00000000
Pd       9.17648563       2.70658958       7.64657962  T       0.00000000       0.00000000       0.00000000
Pd      10.71507357       0.00763028       9.13141714  T       0.00000000       0.00000000       0.00000000
Pd       0.00000135       2.70292705       4.56560641  F       0.00000000       0.00000000       0.00000000
Pd       1.55274905      10.81903344       9.12551621  T       0.00000000       0.00000000       0.00000000
Pd       9.19776742       2.71548991      10.75508654  T       0.00000000       0.00000000       0.00000000
Pd       6.15194241       8.13764285      10.75751751  T       0.00000000       0.00000000       0.00000000
Pd      10.72800385      10.83465652      12.01317102  T       0.00000000       0.00000000       0.00000000
Pd       0.01466613       2.70811681       7.64394828  T       0.00000000       0.00000000       0.00000000
Pd      10.68757280       5.40584816       6.11657764  F       0.00000000       0.00000000       0.00000000
Pd       9.16077813       8.10876919       1.50000000  F       0.00000000       0.00000000       0.00000000
Pd      10.68757448       5.40584612       3.02679635  F       0.00000000       0.00000000       0.00000000
Pd      12.25199105       2.71762898      10.74627423  T       0.00000000       0.00000000       0.00000000
Pd       4.61148589       0.00868146       9.13041496  T       0.00000000       0.00000000       0.00000000
Pd       7.63397856       5.40585179       6.11657833  F       0.00000000       0.00000000       0.00000000
Pd       7.66752303       5.41596786       9.14439161  T       0.00000000       0.00000000       0.00000000
Pd       4.62259558       5.43131765      12.09843975  T       0.00000000       0.00000000       0.00000000
Pd       3.08617859       8.13456964      10.74254317  T       0.00000000       0.00000000       0.00000000
Pd       4.58038906       0.00000000       3.02679635  F       0.00000000       0.00000000       0.00000000
Pd       4.61344388       5.41823733       9.18997334  T       0.00000000       0.00000000       0.00000000
Pd       3.07262219       8.11054424       7.64476168  T       0.00000000       0.00000000       0.00000000
Pd       3.05359494       2.70292824       4.56560681  F       0.00000000       0.00000000       0.00000000
Pd       3.05359271       2.70292306       1.50000000  F       0.00000000       0.00000000       0.00000000
Pd       4.58039501       5.40584640       6.11658908  F       0.00000000       0.00000000       0.00000000
Pd       4.58040505      10.81168838       6.11658203  F       0.00000000       0.00000000       0.00000000
Pd       4.58038906       5.40584612       3.02679635  F       0.00000000       0.00000000       0.00000000
Pd       3.05359271       8.10876919       1.50000000  F       0.00000000       0.00000000       0.00000000
Pd       3.07305087       2.71145721       7.64582901  T       0.00000000       0.00000000       0.00000000
Pd       4.62298491       0.01789754      12.01299891  T       0.00000000       0.00000000       0.00000000
Pd       3.08932896       2.71391859      10.74246739  T       0.00000000       0.00000000       0.00000000
Pd       3.05359569       8.10876742       4.56559865  F       0.00000000       0.00000000       0.00000000
Pd       6.10718542       2.70292306       1.50000000  F       0.00000000       0.00000000       0.00000000
Pd       7.63398177       0.00000000       3.02679635  F       0.00000000       0.00000000       0.00000000
Pd       1.56342670       5.42451991      12.00197057  T       0.00000000       0.00000000       0.00000000
Pd       6.12265479       8.10989724       7.65004999  T       0.00000000       0.00000000       0.00000000
Pd       0.00000079       8.10876600       4.56559869  F       0.00000000       0.00000000       0.00000000
Pd       6.10718651       8.10875952       4.56558968  F       0.00000000       0.00000000       0.00000000
Pd       1.52680247       5.40584247       6.11658534  F       0.00000000       0.00000000       0.00000000
Pd       7.63398177       5.40584612       3.02679635  F       0.00000000       0.00000000       0.00000000
Pd       6.10718542       8.10876919       1.50000000  F       0.00000000       0.00000000       0.00000000
Pd       0.01158341       8.11251615       7.64957148  T       0.00000000       0.00000000       0.00000000
Pd       7.67580556      10.83170473      12.01933157  T       0.00000000       0.00000000       0.00000000
Pd       6.14570166       2.71661272      10.75679276  T       0.00000000       0.00000000       0.00000000
Pd       1.55609576       5.41895164       9.13808490  T       0.00000000       0.00000000       0.00000000
Pd       7.66556025       0.01030393       9.13418128  T       0.00000000       0.00000000       0.00000000
Pd       6.11782482       2.71038236       7.65019983  T       0.00000000       0.00000000       0.00000000
Pd      12.24636252       8.12585064      10.76726398  T       0.00000000       0.00000000       0.00000000
Pd       7.63399583      10.81167532       6.11657540  F       0.00000000       0.00000000       0.00000000
Pd       6.10718592       2.70292523       4.56558724  F       0.00000000       0.00000000       0.00000000
Pd       1.52679635       5.40584612       3.02679635  F       0.00000000       0.00000000       0.00000000
Pd       0.00000000       2.70292306       1.50000000  F       0.00000000       0.00000000       0.00000000
O        4.60059183       5.45351925      14.09537206  T       0.00000000       0.00000000       0.00000000
C        4.62047573       6.73730805      14.68802639  T       0.00000000       0.00000000       0.00000000
H        4.64431951       6.52082373      15.77646873  T       0.00000000       0.00000000       0.00000000
H        5.51806928       7.32983226      14.41778773  T       0.00000000       0.00000000       0.00000000
H        3.71266836       7.33045527      14.45676772  T       0.00000000       0.00000000       0.00000000
