133
Lattice="12.21437083684855 0.0 7e-16 1.7e-15 10.811692246786171 7e-16 0.0 0.0 30.687574482242482" Properties=species:S:1:pos:R:3:move_mask:L:1:momenta:R:3 adsorbate_info="_JSON {\"site\": {\"coordinates\": [4.580399725048844, 9.522595482442018, 12.116897583144173], \"connectivity\": 2, \"topology\": [10, 37], \"n_vector\": [-0.03511012418095424, -0.09393010286670576, 0.9949595041786615], \"h_vector\": [-0.9999999998712994, -1.3309030247581796e-05, 8.959390630555645e-06], \"site_formula\": {\"O\": 2}}, \"smiles\": \"ClOC\", \"mdf\": 2.0960100559870662, \"adsorbate_formula\": \"CH3O\"}" mace_E=-698.6169023989801 converged=T n_steps=57 d_min=2.8126393100110127 site_type=atop dE_rel_meV=0 original_idx=156 rank=6 E_MACE=-698.6257853973891 pbc="T T T"
O        3.08141284       6.70325688      12.15306732  T       0.00000000       0.00000000       0.00000000
O        6.17660895       1.31169721      12.15177593  T       0.00000000       0.00000000       0.00000000
O        6.13628031       4.09281689      12.15582416  T       0.00000000       0.00000000       0.00000000
O        6.13515873       1.34444281       9.17395820  T       0.00000000       0.00000000       0.00000000
O        6.12221531       4.04590689       9.15972816  T       0.00000000       0.00000000       0.00000000
O        6.10718343       1.35539432       6.10801899  F       0.00000000       0.00000000       0.00000000
O        6.10718534       4.05045008       6.10801162  F       0.00000000       0.00000000       0.00000000
O        6.10718542       1.35146153       3.02679635  F       0.00000000       0.00000000       0.00000000
O        6.10718542       4.05438459       3.02679635  F       0.00000000       0.00000000       0.00000000
O        9.21587109       9.50524877      12.15441956  T       0.00000000       0.00000000       0.00000000
O        3.08427543       9.48741123      12.14327874  T       0.00000000       0.00000000       0.00000000
O        3.06628661       6.75270765       9.15359625  T       0.00000000       0.00000000       0.00000000
O        3.07788722       9.45365243       9.17325151  T       0.00000000       0.00000000       0.00000000
O        3.05359341       6.76124998       6.10801980  F       0.00000000       0.00000000       0.00000000
O        3.05359360       9.45629444       6.10802097  F       0.00000000       0.00000000       0.00000000
O        3.05359271       6.75730765       3.02679635  F       0.00000000       0.00000000       0.00000000
O        3.05359271       9.46023072       3.02679635  F       0.00000000       0.00000000       0.00000000
O        3.08682183       1.31184136      12.14528658  T       0.00000000       0.00000000       0.00000000
O        6.10718542       9.46023072       3.02679635  F       0.00000000       0.00000000       0.00000000
O        6.10718542       6.75730765       3.02679635  F       0.00000000       0.00000000       0.00000000
O        6.10718028       9.45628983       6.10801454  F       0.00000000       0.00000000       0.00000000
O        6.10718760       6.76124043       6.10802244  F       0.00000000       0.00000000       0.00000000
O        9.17142397       6.75864184       9.15990957  T       0.00000000       0.00000000       0.00000000
O        9.18916640       9.45581169       9.16241998  T       0.00000000       0.00000000       0.00000000
O        9.16078073       6.76123572       6.10801818  F       0.00000000       0.00000000       0.00000000
O        9.16078059       9.45627785       6.10801483  F       0.00000000       0.00000000       0.00000000
O        9.16077813       6.75730765       3.02679635  F       0.00000000       0.00000000       0.00000000
O        9.16077813       9.46023072       3.02679635  F       0.00000000       0.00000000       0.00000000
O        9.21530807       1.30749598      12.16490784  T       0.00000000       0.00000000       0.00000000
O        9.18929530       4.10018865      12.16650378  T       0.00000000       0.00000000       0.00000000
O        3.07673090       4.09393972      12.14869469  T       0.00000000       0.00000000       0.00000000
O        9.18791873       1.35401469       9.16657888  T       0.00000000       0.00000000       0.00000000
O        9.16077827       1.35539012       6.10801450  F       0.00000000       0.00000000       0.00000000
O        9.16078421       4.05045012       6.10800209  F       0.00000000       0.00000000       0.00000000
O        9.16077813       1.35146153       3.02679635  F       0.00000000       0.00000000       0.00000000
O        9.16077813       4.05438459       3.02679635  F       0.00000000       0.00000000       0.00000000
O        6.13180841       6.70307994      12.15586841  T       0.00000000       0.00000000       0.00000000
O        6.17930165       9.49660804      12.13229532  T       0.00000000       0.00000000       0.00000000
O        6.11994634       6.75093395       9.15363100  T       0.00000000       0.00000000       0.00000000
O        6.13663645       9.45227824       9.17319564  T       0.00000000       0.00000000       0.00000000
O        9.17670748       4.04761270       9.16304982  T       0.00000000       0.00000000       0.00000000
O        3.07800687       1.34403847       9.17042313  T       0.00000000       0.00000000       0.00000000
O        9.18427060       6.70904622      12.15923248  T       0.00000000       0.00000000       0.00000000
O       12.26491883       9.50288980      12.16478798  T       0.00000000       0.00000000       0.00000000
O        0.00000000       6.75730765       3.02679635  F       0.00000000       0.00000000       0.00000000
O        3.06289422       4.04857380       9.15461400  T       0.00000000       0.00000000       0.00000000
O        0.05386320       1.30620622      12.16795757  T       0.00000000       0.00000000       0.00000000
O        0.00000951       9.45630243       6.10801529  F       0.00000000       0.00000000       0.00000000
O       12.23850360       4.10077949      12.16531388  T       0.00000000       0.00000000       0.00000000
O        0.00000182       6.76124509       6.10800952  F       0.00000000       0.00000000       0.00000000
O        0.02402583       9.45589943       9.16512974  T       0.00000000       0.00000000       0.00000000
O        0.02612384       1.35384248       9.16761900  T       0.00000000       0.00000000       0.00000000
O        0.01232264       6.76060883       9.16195271  T       0.00000000       0.00000000       0.00000000
O       12.22362037       4.04816608       9.16328581  T       0.00000000       0.00000000       0.00000000
O       12.24224956       6.70941128      12.16275868  T       0.00000000       0.00000000       0.00000000
O        0.00000448       1.35539672       6.10801283  F       0.00000000       0.00000000       0.00000000
O        0.00000331       4.05045002       6.10801189  F       0.00000000       0.00000000       0.00000000
O        3.05359271       4.05438459       3.02679635  F       0.00000000       0.00000000       0.00000000
O        0.00000000       9.46023072       3.02679635  F       0.00000000       0.00000000       0.00000000
O        3.05359105       4.05044320       6.10802763  F       0.00000000       0.00000000       0.00000000
O        3.05359271       1.35146153       3.02679635  F       0.00000000       0.00000000       0.00000000
O        3.05359652       1.35540103       6.10801944  F       0.00000000       0.00000000       0.00000000
O        0.00000000       4.05438459       3.02679635  F       0.00000000       0.00000000       0.00000000
O        0.00000000       1.35146153       3.02679635  F       0.00000000       0.00000000       0.00000000
Pd       7.66001721       5.39995560      12.00932513  T       0.00000000       0.00000000       0.00000000
Pd      10.71309367       5.40653915      12.01091492  T       0.00000000       0.00000000       0.00000000
Pd       0.00000000       8.10876919       1.50000000  F       0.00000000       0.00000000       0.00000000
Pd       9.19162729       8.10528440      10.75707034  T       0.00000000       0.00000000       0.00000000
Pd       1.52679635       0.00000000       3.02679635  F       0.00000000       0.00000000       0.00000000
Pd       9.16077813       2.70292306       1.50000000  F       0.00000000       0.00000000       0.00000000
Pd      10.68757448       0.00000000       3.02679635  F       0.00000000       0.00000000       0.00000000
Pd      10.69904565       5.40555781       9.13190334  T       0.00000000       0.00000000       0.00000000
Pd       1.57477329      -0.00169490      12.01217340  T       0.00000000       0.00000000       0.00000000
Pd       9.16077900       2.70292450       4.56559698  F       0.00000000       0.00000000       0.00000000
Pd      10.68756280      10.81168006       6.11657659  F       0.00000000       0.00000000       0.00000000
Pd       9.16077776       8.10875607       4.56559406  F       0.00000000       0.00000000       0.00000000
Pd       1.52678677       0.00000067       6.11658292  F       0.00000000       0.00000000       0.00000000
Pd       9.16894515       8.10868315       7.64685682  T       0.00000000       0.00000000       0.00000000
Pd       9.17118283       2.70086043       7.64839772  T       0.00000000       0.00000000       0.00000000
Pd      10.71453531       0.00022154       9.13743716  T       0.00000000       0.00000000       0.00000000
Pd       0.00000135       2.70292705       4.56560641  F       0.00000000       0.00000000       0.00000000
Pd       1.54973512      10.80674734       9.14039570  T       0.00000000       0.00000000       0.00000000
Pd       9.19538250       2.70433920      10.76388039  T       0.00000000       0.00000000       0.00000000
Pd       6.13955505       8.09367983      10.74509535  T       0.00000000       0.00000000       0.00000000
Pd      10.74317236      10.81177268      12.01592819  T       0.00000000       0.00000000       0.00000000
Pd       0.00875794       2.70111014       7.64898337  T       0.00000000       0.00000000       0.00000000
Pd      10.68757280       5.40584816       6.11657764  F       0.00000000       0.00000000       0.00000000
Pd       9.16077813       8.10876919       1.50000000  F       0.00000000       0.00000000       0.00000000
Pd      10.68757448       5.40584612       3.02679635  F       0.00000000       0.00000000       0.00000000
Pd      12.24177638       2.70295638      10.76500450  T       0.00000000       0.00000000       0.00000000
Pd       4.60805216      -0.00753748       9.18282580  T       0.00000000       0.00000000       0.00000000
Pd       7.63397856       5.40585179       6.11657833  F       0.00000000       0.00000000       0.00000000
Pd       7.64804807       5.40005650       9.13015586  T       0.00000000       0.00000000       0.00000000
Pd       4.60676194       5.39387074      12.00676234  T       0.00000000       0.00000000       0.00000000
Pd       3.08144308       8.09643896      10.74508630  T       0.00000000       0.00000000       0.00000000
Pd       4.58038906       0.00000000       3.02679635  F       0.00000000       0.00000000       0.00000000
Pd       4.59231038       5.39727526       9.12875891  T       0.00000000       0.00000000       0.00000000
Pd       3.06696025       8.10829274       7.64606005  T       0.00000000       0.00000000       0.00000000
Pd       3.05359494       2.70292824       4.56560681  F       0.00000000       0.00000000       0.00000000
Pd       3.05359271       2.70292306       1.50000000  F       0.00000000       0.00000000       0.00000000
Pd       4.58039501       5.40584640       6.11658908  F       0.00000000       0.00000000       0.00000000
Pd       4.58040505      10.81168838       6.11658203  F       0.00000000       0.00000000       0.00000000
Pd       4.58038906       5.40584612       3.02679635  F       0.00000000       0.00000000       0.00000000
Pd       3.05359271       8.10876919       1.50000000  F       0.00000000       0.00000000       0.00000000
Pd       3.06616267       2.69746708       7.64597011  T       0.00000000       0.00000000       0.00000000
Pd       4.62982095      -0.00630783      12.09839637  T       0.00000000       0.00000000       0.00000000
Pd       3.07811661       2.70041780      10.74492609  T       0.00000000       0.00000000       0.00000000
Pd       3.05359569       8.10876742       4.56559865  F       0.00000000       0.00000000       0.00000000
Pd       6.10718542       2.70292306       1.50000000  F       0.00000000       0.00000000       0.00000000
Pd       7.63398177       0.00000000       3.02679635  F       0.00000000       0.00000000       0.00000000
Pd       1.55172463       5.40077458      12.00772738  T       0.00000000       0.00000000       0.00000000
Pd       6.11364373       8.10781812       7.64589795  T       0.00000000       0.00000000       0.00000000
Pd       0.00000079       8.10876600       4.56559869  F       0.00000000       0.00000000       0.00000000
Pd       6.10718651       8.10875952       4.56558968  F       0.00000000       0.00000000       0.00000000
Pd       1.52680247       5.40584247       6.11658534  F       0.00000000       0.00000000       0.00000000
Pd       7.63398177       5.40584612       3.02679635  F       0.00000000       0.00000000       0.00000000
Pd       6.10718542       8.10876919       1.50000000  F       0.00000000       0.00000000       0.00000000
Pd       0.00977647       8.10927771       7.64818756  T       0.00000000       0.00000000       0.00000000
Pd       7.69525999      10.81483122      12.00426286  T       0.00000000       0.00000000       0.00000000
Pd       6.14223837       2.69959065      10.75138852  T       0.00000000       0.00000000       0.00000000
Pd       1.53537123       5.40236191       9.12840596  T       0.00000000       0.00000000       0.00000000
Pd       7.66475528      -0.00433295       9.13956295  T       0.00000000       0.00000000       0.00000000
Pd       6.11391974       2.69690910       7.64814833  T       0.00000000       0.00000000       0.00000000
Pd      12.24329842       8.10709013      10.76250011  T       0.00000000       0.00000000       0.00000000
Pd       7.63399583      10.81167532       6.11657540  F       0.00000000       0.00000000       0.00000000
Pd       6.10718592       2.70292523       4.56558724  F       0.00000000       0.00000000       0.00000000
Pd       1.52679635       5.40584612       3.02679635  F       0.00000000       0.00000000       0.00000000
Pd       0.00000000       2.70292306       1.50000000  F       0.00000000       0.00000000       0.00000000
O        4.56066490      10.79715633      14.09117189  T       0.00000000       0.00000000       0.00000000
C        4.85540807       9.56147314      14.71351924  T       0.00000000       0.00000000       0.00000000
H        4.55283145       9.71897865      15.77157687  T       0.00000000       0.00000000       0.00000000
H        4.27130411       8.71404779      14.30053020  T       0.00000000       0.00000000       0.00000000
H        5.93594081       9.30926434      14.68003852  T       0.00000000       0.00000000       0.00000000
