133
Lattice="12.21437083684855 0.0 7e-16 1.7e-15 10.811692246786171 7e-16 0.0 0.0 30.687574482242482" Properties=species:S:1:pos:R:3:move_mask:L:1:momenta:R:3 adsorbate_info="_JSON {\"site\": {\"coordinates\": [3.053548114198301, 6.694891805293432, 12.116878707710594], \"connectivity\": 1, \"topology\": [0], \"n_vector\": [-0.06374334919564456, -0.03687996542379607, 0.9972846402024157], \"h_vector\": [1.0, 0.0, 0.0], \"site_formula\": {\"O\": 1}}, \"smiles\": \"ClOC\", \"mdf\": 1.7097869690905074, \"adsorbate_formula\": \"CH3O\"}" mace_E=-698.5703411853933 converged=T n_steps=93 d_min=2.7894647917745248 site_type=unknown dE_rel_meV=0 original_idx=94 rank=0 E_MACE=-698.6270291711497 pbc="T T T"
O        3.15587376       6.72196789      12.14194469  T       0.00000000       0.00000000       0.00000000
O        6.19573629       1.30834018      12.17060244  T       0.00000000       0.00000000       0.00000000
O        6.19985767       4.10575942      12.16263252  T       0.00000000       0.00000000       0.00000000
O        6.17368013       1.35818768       9.16789027  T       0.00000000       0.00000000       0.00000000
O        6.17243109       4.05289930       9.16663055  T       0.00000000       0.00000000       0.00000000
O        6.10718343       1.35539432       6.10801899  F       0.00000000       0.00000000       0.00000000
O        6.10718534       4.05045008       6.10801162  F       0.00000000       0.00000000       0.00000000
O        6.10718542       1.35146153       3.02679635  F       0.00000000       0.00000000       0.00000000
O        6.10718542       4.05438459       3.02679635  F       0.00000000       0.00000000       0.00000000
O        9.25080768       9.51544761      12.16017207  T       0.00000000       0.00000000       0.00000000
O        3.14178125       9.50722244      12.16297951  T       0.00000000       0.00000000       0.00000000
O        3.11790908       6.76140243       9.17329602  T       0.00000000       0.00000000       0.00000000
O        3.12120146       9.46245599       9.15986417  T       0.00000000       0.00000000       0.00000000
O        3.05359341       6.76124998       6.10801980  F       0.00000000       0.00000000       0.00000000
O        3.05359360       9.45629444       6.10802097  F       0.00000000       0.00000000       0.00000000
O        3.05359271       6.75730765       3.02679635  F       0.00000000       0.00000000       0.00000000
O        3.05359271       9.46023072       3.02679635  F       0.00000000       0.00000000       0.00000000
O        3.14466380       1.30637007      12.15608013  T       0.00000000       0.00000000       0.00000000
O        6.10718542       9.46023072       3.02679635  F       0.00000000       0.00000000       0.00000000
O        6.10718542       6.75730765       3.02679635  F       0.00000000       0.00000000       0.00000000
O        6.10718028       9.45628983       6.10801454  F       0.00000000       0.00000000       0.00000000
O        6.10718760       6.76124043       6.10802244  F       0.00000000       0.00000000       0.00000000
O        9.21953779       6.76528228       9.16809985  T       0.00000000       0.00000000       0.00000000
O        9.22217613       9.45991825       9.16452173  T       0.00000000       0.00000000       0.00000000
O        9.16078073       6.76123572       6.10801818  F       0.00000000       0.00000000       0.00000000
O        9.16078059       9.45627785       6.10801483  F       0.00000000       0.00000000       0.00000000
O        9.16077813       6.75730765       3.02679635  F       0.00000000       0.00000000       0.00000000
O        9.16077813       9.46023072       3.02679635  F       0.00000000       0.00000000       0.00000000
O        9.24971871       1.31215306      12.17047716  T       0.00000000       0.00000000       0.00000000
O        9.25055768       4.10491389      12.17372202  T       0.00000000       0.00000000       0.00000000
O        3.15705947       4.10001548      12.16611032  T       0.00000000       0.00000000       0.00000000
O        9.22413035       1.36185801       9.16940226  T       0.00000000       0.00000000       0.00000000
O        9.16077827       1.35539012       6.10801450  F       0.00000000       0.00000000       0.00000000
O        9.16078421       4.05045012       6.10800209  F       0.00000000       0.00000000       0.00000000
O        9.16077813       1.35146153       3.02679635  F       0.00000000       0.00000000       0.00000000
O        9.16077813       4.05438459       3.02679635  F       0.00000000       0.00000000       0.00000000
O        6.19958352       6.71673221      12.15852303  T       0.00000000       0.00000000       0.00000000
O        6.19839448       9.51016298      12.16550327  T       0.00000000       0.00000000       0.00000000
O        6.17139816       6.76345032       9.16715054  T       0.00000000       0.00000000       0.00000000
O        6.17407845       9.46041536       9.16416897  T       0.00000000       0.00000000       0.00000000
O        9.22048806       4.05327244       9.16651808  T       0.00000000       0.00000000       0.00000000
O        3.11914267       1.35895674       9.16679292  T       0.00000000       0.00000000       0.00000000
O        9.24648412       6.72286214      12.17026166  T       0.00000000       0.00000000       0.00000000
O       12.30209582       9.51485682      12.14817254  T       0.00000000       0.00000000       0.00000000
O        0.00000000       6.75730765       3.02679635  F       0.00000000       0.00000000       0.00000000
O        3.11618119       4.05742930       9.17841026  T       0.00000000       0.00000000       0.00000000
O        0.09088971       1.30864866      12.14937209  T       0.00000000       0.00000000       0.00000000
O        0.00000951       9.45630243       6.10801529  F       0.00000000       0.00000000       0.00000000
O       12.27915835       4.09521275      12.14325007  T       0.00000000       0.00000000       0.00000000
O        0.00000182       6.76124509       6.10800952  F       0.00000000       0.00000000       0.00000000
O        0.06399223       9.46433547       9.15442873  T       0.00000000       0.00000000       0.00000000
O        0.06601407       1.35291065       9.15861810  T       0.00000000       0.00000000       0.00000000
O        0.06128473       6.76018894       9.17346067  T       0.00000000       0.00000000       0.00000000
O       12.27370001       4.05832875       9.17170037  T       0.00000000       0.00000000       0.00000000
O       12.27757741       6.73759324      12.13965447  T       0.00000000       0.00000000       0.00000000
O        0.00000448       1.35539672       6.10801283  F       0.00000000       0.00000000       0.00000000
O        0.00000331       4.05045002       6.10801189  F       0.00000000       0.00000000       0.00000000
O        3.05359271       4.05438459       3.02679635  F       0.00000000       0.00000000       0.00000000
O        0.00000000       9.46023072       3.02679635  F       0.00000000       0.00000000       0.00000000
O        3.05359105       4.05044320       6.10802763  F       0.00000000       0.00000000       0.00000000
O        3.05359271       1.35146153       3.02679635  F       0.00000000       0.00000000       0.00000000
O        3.05359652       1.35540103       6.10801944  F       0.00000000       0.00000000       0.00000000
O        0.00000000       4.05438459       3.02679635  F       0.00000000       0.00000000       0.00000000
O        0.00000000       1.35146153       3.02679635  F       0.00000000       0.00000000       0.00000000
Pd       7.72661789       5.41290576      12.01844415  T       0.00000000       0.00000000       0.00000000
Pd      10.77095460       5.41586693      12.01643225  T       0.00000000       0.00000000       0.00000000
Pd       0.00000000       8.10876919       1.50000000  F       0.00000000       0.00000000       0.00000000
Pd       9.23627919       8.11376661      10.76264227  T       0.00000000       0.00000000       0.00000000
Pd       1.52679635       0.00000000       3.02679635  F       0.00000000       0.00000000       0.00000000
Pd       9.16077813       2.70292306       1.50000000  F       0.00000000       0.00000000       0.00000000
Pd      10.68757448       0.00000000       3.02679635  F       0.00000000       0.00000000       0.00000000
Pd      10.74516986       5.40970738       9.14010038  T       0.00000000       0.00000000       0.00000000
Pd       1.61713169       0.00314124      12.00643290  T       0.00000000       0.00000000       0.00000000
Pd       9.16077900       2.70292450       4.56559698  F       0.00000000       0.00000000       0.00000000
Pd      10.68756280      10.81168006       6.11657659  F       0.00000000       0.00000000       0.00000000
Pd       9.16077776       8.10875607       4.56559406  F       0.00000000       0.00000000       0.00000000
Pd       1.52678677       0.00000067       6.11658292  F       0.00000000       0.00000000       0.00000000
Pd       9.18881458       8.10945371       7.64862430  T       0.00000000       0.00000000       0.00000000
Pd       9.18969113       2.70363968       7.64945941  T       0.00000000       0.00000000       0.00000000
Pd      10.75041186       0.00354010       9.13151398  T       0.00000000       0.00000000       0.00000000
Pd       0.00000135       2.70292705       4.56560641  F       0.00000000       0.00000000       0.00000000
Pd       1.59483611      10.81567326       9.13204509  T       0.00000000       0.00000000       0.00000000
Pd       9.23748475       2.70946447      10.76845999  T       0.00000000       0.00000000       0.00000000
Pd       6.19250066       8.11573017      10.75978254  T       0.00000000       0.00000000       0.00000000
Pd      10.77662455      10.82019803      12.00976392  T       0.00000000       0.00000000       0.00000000
Pd       0.03562476       2.70673193       7.64702042  T       0.00000000       0.00000000       0.00000000
Pd      10.68757280       5.40584816       6.11657764  F       0.00000000       0.00000000       0.00000000
Pd       9.16077813       8.10876919       1.50000000  F       0.00000000       0.00000000       0.00000000
Pd      10.68757448       5.40584612       3.02679635  F       0.00000000       0.00000000       0.00000000
Pd      12.28691713       2.70365381      10.74608108  T       0.00000000       0.00000000       0.00000000
Pd       4.64828927       0.00530330       9.13732159  T       0.00000000       0.00000000       0.00000000
Pd       7.63397856       5.40585179       6.11657833  F       0.00000000       0.00000000       0.00000000
Pd       7.69688421       5.40899832       9.13930658  T       0.00000000       0.00000000       0.00000000
Pd       4.67999209       5.40944442      12.00043804  T       0.00000000       0.00000000       0.00000000
Pd       3.13482665       8.12081887      10.75197029  T       0.00000000       0.00000000       0.00000000
Pd       4.58038906       0.00000000       3.02679635  F       0.00000000       0.00000000       0.00000000
Pd       4.64649069       5.40848809       9.14140639  T       0.00000000       0.00000000       0.00000000
Pd       3.08443763       8.10799202       7.64822336  T       0.00000000       0.00000000       0.00000000
Pd       3.05359494       2.70292824       4.56560681  F       0.00000000       0.00000000       0.00000000
Pd       3.05359271       2.70292306       1.50000000  F       0.00000000       0.00000000       0.00000000
Pd       4.58039501       5.40584640       6.11658908  F       0.00000000       0.00000000       0.00000000
Pd       4.58040505      10.81168838       6.11658203  F       0.00000000       0.00000000       0.00000000
Pd       4.58038906       5.40584612       3.02679635  F       0.00000000       0.00000000       0.00000000
Pd       3.05359271       8.10876919       1.50000000  F       0.00000000       0.00000000       0.00000000
Pd       3.08197735       2.70812191       7.65080268  T       0.00000000       0.00000000       0.00000000
Pd       4.67100074       0.00090421      12.01304632  T       0.00000000       0.00000000       0.00000000
Pd       3.13379132       2.70674202      10.76044908  T       0.00000000       0.00000000       0.00000000
Pd       3.05359569       8.10876742       4.56559865  F       0.00000000       0.00000000       0.00000000
Pd       6.10718542       2.70292306       1.50000000  F       0.00000000       0.00000000       0.00000000
Pd       7.63398177       0.00000000       3.02679635  F       0.00000000       0.00000000       0.00000000
Pd       1.60649029       5.41202325      12.10978415  T       0.00000000       0.00000000       0.00000000
Pd       6.14314685       8.11101361       7.64853423  T       0.00000000       0.00000000       0.00000000
Pd       0.00000079       8.10876600       4.56559869  F       0.00000000       0.00000000       0.00000000
Pd       6.10718651       8.10875952       4.56558968  F       0.00000000       0.00000000       0.00000000
Pd       1.52680247       5.40584247       6.11658534  F       0.00000000       0.00000000       0.00000000
Pd       7.63398177       5.40584612       3.02679635  F       0.00000000       0.00000000       0.00000000
Pd       6.10718542       8.10876919       1.50000000  F       0.00000000       0.00000000       0.00000000
Pd       0.03518194       8.10838745       7.64576163  T       0.00000000       0.00000000       0.00000000
Pd       7.72398086      10.81819227      12.02225976  T       0.00000000       0.00000000       0.00000000
Pd       6.18856802       2.70358217      10.76510013  T       0.00000000       0.00000000       0.00000000
Pd       1.58967860       5.40953204       9.18653898  T       0.00000000       0.00000000       0.00000000
Pd       7.69994944       0.00454938       9.13849696  T       0.00000000       0.00000000       0.00000000
Pd       6.14286354       2.70363609       7.64927152  T       0.00000000       0.00000000       0.00000000
Pd      12.28436800       8.12032276      10.74182548  T       0.00000000       0.00000000       0.00000000
Pd       7.63399583      10.81167532       6.11657540  F       0.00000000       0.00000000       0.00000000
Pd       6.10718592       2.70292523       4.56558724  F       0.00000000       0.00000000       0.00000000
Pd       1.52679635       5.40584612       3.02679635  F       0.00000000       0.00000000       0.00000000
Pd       0.00000000       2.70292306       1.50000000  F       0.00000000       0.00000000       0.00000000
O        1.42865125       5.41993231      14.09710816  T       0.00000000       0.00000000       0.00000000
C        2.52360027       5.88917977      14.85019357  T       0.00000000       0.00000000       0.00000000
H        2.12701795       5.91932471      15.88723525  T       0.00000000       0.00000000       0.00000000
H        3.39649886       5.19991985      14.82647779  T       0.00000000       0.00000000       0.00000000
H        2.85518208       6.91000358      14.57085949  T       0.00000000       0.00000000       0.00000000
