133
Lattice="12.21437083684855 0.0 7e-16 1.7e-15 10.811692246786171 7e-16 0.0 0.0 30.687574482242482" Properties=species:S:1:pos:R:3:move_mask:L:1:momenta:R:3 adsorbate_info="_JSON {\"site\": {\"coordinates\": [9.16080328337563, 4.116754587725582, 12.116902199594046], \"connectivity\": 1, \"topology\": [29], \"n_vector\": [0.005439098234704475, -0.07824100393582602, 0.9969196364369133], \"h_vector\": [1.0, 0.0, 0.0], \"site_formula\": {\"O\": 1}}, \"smiles\": \"ClOC\", \"mdf\": 1.7097869690905088, \"adsorbate_formula\": \"CH3O\"}" mace_E=-697.8132726166043 converged=T n_steps=61 d_min=1.996133460276145 site_type=unknown dE_rel_meV=0 original_idx=294 rank=5 E_MACE=-698.6258021037399 pbc="T T T"
O        3.06798476       6.74332492      12.17073146  T       0.00000000       0.00000000       0.00000000
O        6.12490579       1.31601807      12.17862556  T       0.00000000       0.00000000       0.00000000
O        6.10121332       4.12089476      12.17940984  T       0.00000000       0.00000000       0.00000000
O        6.11579552       1.36560424       9.17254089  T       0.00000000       0.00000000       0.00000000
O        6.11333446       4.05768268       9.16905378  T       0.00000000       0.00000000       0.00000000
O        6.10718343       1.35539432       6.10801899  F       0.00000000       0.00000000       0.00000000
O        6.10718534       4.05045008       6.10801162  F       0.00000000       0.00000000       0.00000000
O        6.10718542       1.35146153       3.02679635  F       0.00000000       0.00000000       0.00000000
O        6.10718542       4.05438459       3.02679635  F       0.00000000       0.00000000       0.00000000
O        9.16749970       9.48068691      12.18607073  T       0.00000000       0.00000000       0.00000000
O        3.06164622       9.53498056      12.15858953  T       0.00000000       0.00000000       0.00000000
O        3.06318682       6.77123778       9.16768617  T       0.00000000       0.00000000       0.00000000
O        3.06003450       9.47059852       9.16069527  T       0.00000000       0.00000000       0.00000000
O        3.05359341       6.76124998       6.10801980  F       0.00000000       0.00000000       0.00000000
O        3.05359360       9.45629444       6.10802097  F       0.00000000       0.00000000       0.00000000
O        3.05359271       6.75730765       3.02679635  F       0.00000000       0.00000000       0.00000000
O        3.05359271       9.46023072       3.02679635  F       0.00000000       0.00000000       0.00000000
O        3.06191457       1.33677190      12.16754026  T       0.00000000       0.00000000       0.00000000
O        6.10718542       9.46023072       3.02679635  F       0.00000000       0.00000000       0.00000000
O        6.10718542       6.75730765       3.02679635  F       0.00000000       0.00000000       0.00000000
O        6.10718028       9.45628983       6.10801454  F       0.00000000       0.00000000       0.00000000
O        6.10718760       6.76124043       6.10802244  F       0.00000000       0.00000000       0.00000000
O        9.16957574       6.75996243       9.17262264  T       0.00000000       0.00000000       0.00000000
O        9.16541458       9.45817636       9.17251725  T       0.00000000       0.00000000       0.00000000
O        9.16078073       6.76123572       6.10801818  F       0.00000000       0.00000000       0.00000000
O        9.16078059       9.45627785       6.10801483  F       0.00000000       0.00000000       0.00000000
O        9.16077813       6.75730765       3.02679635  F       0.00000000       0.00000000       0.00000000
O        9.16077813       9.46023072       3.02679635  F       0.00000000       0.00000000       0.00000000
O        9.16139944       1.25267869      12.17519779  T       0.00000000       0.00000000       0.00000000
O        9.19614000       4.05099562      12.33826943  T       0.00000000       0.00000000       0.00000000
O        3.06873883       4.13003111      12.16113676  T       0.00000000       0.00000000       0.00000000
O        9.16651369       1.36508219       9.17538220  T       0.00000000       0.00000000       0.00000000
O        9.16077827       1.35539012       6.10801450  F       0.00000000       0.00000000       0.00000000
O        9.16078421       4.05045012       6.10800209  F       0.00000000       0.00000000       0.00000000
O        9.16077813       1.35146153       3.02679635  F       0.00000000       0.00000000       0.00000000
O        9.16077813       4.05438459       3.02679635  F       0.00000000       0.00000000       0.00000000
O        6.11950066       6.74625537      12.16269058  T       0.00000000       0.00000000       0.00000000
O        6.08818977       9.51028406      12.16030190  T       0.00000000       0.00000000       0.00000000
O        6.12443897       6.76385413       9.16321162  T       0.00000000       0.00000000       0.00000000
O        6.11009942       9.46961358       9.15667029  T       0.00000000       0.00000000       0.00000000
O        9.17130599       4.04170881       9.20069693  T       0.00000000       0.00000000       0.00000000
O        3.06001762       1.36949499       9.17099471  T       0.00000000       0.00000000       0.00000000
O        9.17302644       6.70933560      12.18686392  T       0.00000000       0.00000000       0.00000000
O       12.24308512       9.51506770      12.15846785  T       0.00000000       0.00000000       0.00000000
O        0.00000000       6.75730765       3.02679635  F       0.00000000       0.00000000       0.00000000
O        3.06223829       4.06779137       9.15954941  T       0.00000000       0.00000000       0.00000000
O       -0.00250517       1.31187369      12.17324908  T       0.00000000       0.00000000       0.00000000
O        0.00000951       9.45630243       6.10801529  F       0.00000000       0.00000000       0.00000000
O       12.24562041       4.12675112      12.16945327  T       0.00000000       0.00000000       0.00000000
O        0.00000182       6.76124509       6.10800952  F       0.00000000       0.00000000       0.00000000
O        0.00655284       9.47080019       9.15484636  T       0.00000000       0.00000000       0.00000000
O        0.00142541       1.36336229       9.17318874  T       0.00000000       0.00000000       0.00000000
O        0.00113496       6.76551572       9.16245181  T       0.00000000       0.00000000       0.00000000
O       12.22583921       4.05762351       9.17153630  T       0.00000000       0.00000000       0.00000000
O       12.23023368       6.74246833      12.14778934  T       0.00000000       0.00000000       0.00000000
O        0.00000448       1.35539672       6.10801283  F       0.00000000       0.00000000       0.00000000
O        0.00000331       4.05045002       6.10801189  F       0.00000000       0.00000000       0.00000000
O        3.05359271       4.05438459       3.02679635  F       0.00000000       0.00000000       0.00000000
O        0.00000000       9.46023072       3.02679635  F       0.00000000       0.00000000       0.00000000
O        3.05359105       4.05044320       6.10802763  F       0.00000000       0.00000000       0.00000000
O        3.05359271       1.35146153       3.02679635  F       0.00000000       0.00000000       0.00000000
O        3.05359652       1.35540103       6.10801944  F       0.00000000       0.00000000       0.00000000
O        0.00000000       4.05438459       3.02679635  F       0.00000000       0.00000000       0.00000000
O        0.00000000       1.35146153       3.02679635  F       0.00000000       0.00000000       0.00000000
Pd       7.61538090       5.44070657      12.07350385  T       0.00000000       0.00000000       0.00000000
Pd      10.73081640       5.44255928      12.05473828  T       0.00000000       0.00000000       0.00000000
Pd       0.00000000       8.10876919       1.50000000  F       0.00000000       0.00000000       0.00000000
Pd       9.16978261       8.09792459      10.77272425  T       0.00000000       0.00000000       0.00000000
Pd       1.52679635       0.00000000       3.02679635  F       0.00000000       0.00000000       0.00000000
Pd       9.16077813       2.70292306       1.50000000  F       0.00000000       0.00000000       0.00000000
Pd      10.68757448       0.00000000       3.02679635  F       0.00000000       0.00000000       0.00000000
Pd      10.69436945       5.40383725       9.14823189  T       0.00000000       0.00000000       0.00000000
Pd       1.53720437       0.02612228      12.01521070  T       0.00000000       0.00000000       0.00000000
Pd       9.16077900       2.70292450       4.56559698  F       0.00000000       0.00000000       0.00000000
Pd      10.68756280      10.81168006       6.11657659  F       0.00000000       0.00000000       0.00000000
Pd       9.16077776       8.10875607       4.56559406  F       0.00000000       0.00000000       0.00000000
Pd       1.52678677       0.00000067       6.11658292  F       0.00000000       0.00000000       0.00000000
Pd       9.16280546       8.10900251       7.65241313  T       0.00000000       0.00000000       0.00000000
Pd       9.16529061       2.71232314       7.65842044  T       0.00000000       0.00000000       0.00000000
Pd      10.69156895       0.00688745       9.14298759  T       0.00000000       0.00000000       0.00000000
Pd       0.00000135       2.70292705       4.56560641  F       0.00000000       0.00000000       0.00000000
Pd       1.53299290      10.82536888       9.13584337  T       0.00000000       0.00000000       0.00000000
Pd       9.17915300       2.64362693      10.79445181  T       0.00000000       0.00000000       0.00000000
Pd       6.11154319       8.12479856      10.74624350  T       0.00000000       0.00000000       0.00000000
Pd      10.70089493      10.79031946      12.03359234  T       0.00000000       0.00000000       0.00000000
Pd       0.00148996       2.70671412       7.65249510  T       0.00000000       0.00000000       0.00000000
Pd      10.68757280       5.40584816       6.11657764  F       0.00000000       0.00000000       0.00000000
Pd       9.16077813       8.10876919       1.50000000  F       0.00000000       0.00000000       0.00000000
Pd      10.68757448       5.40584612       3.02679635  F       0.00000000       0.00000000       0.00000000
Pd      12.22395385       2.71441225      10.77313062  T       0.00000000       0.00000000       0.00000000
Pd       4.58524368       0.01411205       9.13671094  T       0.00000000       0.00000000       0.00000000
Pd       7.63397856       5.40585179       6.11657833  F       0.00000000       0.00000000       0.00000000
Pd       7.64640157       5.40298371       9.14575356  T       0.00000000       0.00000000       0.00000000
Pd       4.58866975       5.43816366      12.01513014  T       0.00000000       0.00000000       0.00000000
Pd       3.06511129       8.13071775      10.76025705  T       0.00000000       0.00000000       0.00000000
Pd       4.58038906       0.00000000       3.02679635  F       0.00000000       0.00000000       0.00000000
Pd       4.59097018       5.41718230       9.13571651  T       0.00000000       0.00000000       0.00000000
Pd       3.05823437       8.11345999       7.64914167  T       0.00000000       0.00000000       0.00000000
Pd       3.05359494       2.70292824       4.56560681  F       0.00000000       0.00000000       0.00000000
Pd       3.05359271       2.70292306       1.50000000  F       0.00000000       0.00000000       0.00000000
Pd       4.58039501       5.40584640       6.11658908  F       0.00000000       0.00000000       0.00000000
Pd       4.58040505      10.81168838       6.11658203  F       0.00000000       0.00000000       0.00000000
Pd       4.58038906       5.40584612       3.02679635  F       0.00000000       0.00000000       0.00000000
Pd       3.05359271       8.10876919       1.50000000  F       0.00000000       0.00000000       0.00000000
Pd       3.05732010       2.70873704       7.64917422  T       0.00000000       0.00000000       0.00000000
Pd       4.58422890       0.02592304      12.01879976  T       0.00000000       0.00000000       0.00000000
Pd       3.06565664       2.72803807      10.76102705  T       0.00000000       0.00000000       0.00000000
Pd       3.05359569       8.10876742       4.56559865  F       0.00000000       0.00000000       0.00000000
Pd       6.10718542       2.70292306       1.50000000  F       0.00000000       0.00000000       0.00000000
Pd       7.63398177       0.00000000       3.02679635  F       0.00000000       0.00000000       0.00000000
Pd       1.54843314       5.43647785      12.00720064  T       0.00000000       0.00000000       0.00000000
Pd       6.11440052       8.11107510       7.64621897  T       0.00000000       0.00000000       0.00000000
Pd       0.00000079       8.10876600       4.56559869  F       0.00000000       0.00000000       0.00000000
Pd       6.10718651       8.10875952       4.56558968  F       0.00000000       0.00000000       0.00000000
Pd       1.52680247       5.40584247       6.11658534  F       0.00000000       0.00000000       0.00000000
Pd       7.63398177       5.40584612       3.02679635  F       0.00000000       0.00000000       0.00000000
Pd       6.10718542       8.10876919       1.50000000  F       0.00000000       0.00000000       0.00000000
Pd      -0.00069776       8.11137781       7.64563176  T       0.00000000       0.00000000       0.00000000
Pd       7.63014288      10.78265730      12.02593312  T       0.00000000       0.00000000       0.00000000
Pd       6.11018172       2.71596515      10.77043348  T       0.00000000       0.00000000       0.00000000
Pd       1.53411994       5.41789677       9.13641564  T       0.00000000       0.00000000       0.00000000
Pd       7.63958093       0.00788473       9.14409641  T       0.00000000       0.00000000       0.00000000
Pd       6.11427936       2.70693702       7.65086648  T       0.00000000       0.00000000       0.00000000
Pd      12.22553945       8.12804806      10.74459011  T       0.00000000       0.00000000       0.00000000
Pd       7.63399583      10.81167532       6.11657540  F       0.00000000       0.00000000       0.00000000
Pd       6.10718592       2.70292523       4.56558724  F       0.00000000       0.00000000       0.00000000
Pd       1.52679635       5.40584612       3.02679635  F       0.00000000       0.00000000       0.00000000
Pd       0.00000000       2.70292306       1.50000000  F       0.00000000       0.00000000       0.00000000
O        9.49495642       3.58444390      13.73763383  T       0.00000000       0.00000000       0.00000000
C        8.26130444       3.38064107      14.45574031  T       0.00000000       0.00000000       0.00000000
H        8.62740602       3.00317391      15.42257302  T       0.00000000       0.00000000       0.00000000
H        7.71998168       4.33049787      14.60941648  T       0.00000000       0.00000000       0.00000000
H        7.61182825       2.64031299      13.96437261  T       0.00000000       0.00000000       0.00000000
