133
Lattice="12.21437083684855 0.0 7e-16 1.7e-15 10.811692246786171 7e-16 0.0 0.0 30.687574482242482" Properties=species:S:1:pos:R:3:move_mask:L:1:momenta:R:3 adsorbate_info="_JSON {\"site\": {\"coordinates\": [9.924199894431815, 4.761293629284792, 12.046284563368951], \"connectivity\": 2, \"topology\": [29, 65], \"n_vector\": [0.042044563739058946, -0.0852438251416947, 0.9954726239004288], \"h_vector\": [-0.7621812103924476, -0.6435128735522125, 0.0705052061714422], \"site_formula\": {\"O\": 1, \"Pd\": 1}}, \"smiles\": \"ClOC\", \"mdf\": 1.9697657078698518, \"adsorbate_formula\": \"CH3O\"}" mace_E=-698.6150703768299 converged=T n_steps=70 d_min=2.6232826103147873 site_type=unknown dE_rel_meV=0 original_idx=320 rank=404 E_MACE=-697.4467809082889 pbc="T T T"
O        3.04260768       6.69929851      12.16376242  T       0.00000000       0.00000000       0.00000000
O        6.10402366       1.29435241      12.16305955  T       0.00000000       0.00000000       0.00000000
O        6.09528687       4.08843808      12.16759485  T       0.00000000       0.00000000       0.00000000
O        6.10989605       1.35153964       9.16492579  T       0.00000000       0.00000000       0.00000000
O        6.10516947       4.04658060       9.16844152  T       0.00000000       0.00000000       0.00000000
O        6.10718343       1.35539432       6.10801899  F       0.00000000       0.00000000       0.00000000
O        6.10718534       4.05045008       6.10801162  F       0.00000000       0.00000000       0.00000000
O        6.10718542       1.35146153       3.02679635  F       0.00000000       0.00000000       0.00000000
O        6.10718542       4.05438459       3.02679635  F       0.00000000       0.00000000       0.00000000
O        9.15956393       9.49803594      12.17018292  T       0.00000000       0.00000000       0.00000000
O        3.04961087       9.49561983      12.17224903  T       0.00000000       0.00000000       0.00000000
O        3.05306782       6.75749774       9.16589849  T       0.00000000       0.00000000       0.00000000
O        3.05544321       9.45268453       9.16927606  T       0.00000000       0.00000000       0.00000000
O        3.05359341       6.76124998       6.10801980  F       0.00000000       0.00000000       0.00000000
O        3.05359360       9.45629444       6.10802097  F       0.00000000       0.00000000       0.00000000
O        3.05359271       6.75730765       3.02679635  F       0.00000000       0.00000000       0.00000000
O        3.05359271       9.46023072       3.02679635  F       0.00000000       0.00000000       0.00000000
O        3.04743335       1.29335310      12.16736262  T       0.00000000       0.00000000       0.00000000
O        6.10718542       9.46023072       3.02679635  F       0.00000000       0.00000000       0.00000000
O        6.10718542       6.75730765       3.02679635  F       0.00000000       0.00000000       0.00000000
O        6.10718028       9.45628983       6.10801454  F       0.00000000       0.00000000       0.00000000
O        6.10718760       6.76124043       6.10802244  F       0.00000000       0.00000000       0.00000000
O        9.15279814       6.76072901       9.17600891  T       0.00000000       0.00000000       0.00000000
O        9.16424693       9.46034955       9.16084245  T       0.00000000       0.00000000       0.00000000
O        9.16078073       6.76123572       6.10801818  F       0.00000000       0.00000000       0.00000000
O        9.16078059       9.45627785       6.10801483  F       0.00000000       0.00000000       0.00000000
O        9.16077813       6.75730765       3.02679635  F       0.00000000       0.00000000       0.00000000
O        9.16077813       9.46023072       3.02679635  F       0.00000000       0.00000000       0.00000000
O        9.15523841       1.29563481      12.15067232  T       0.00000000       0.00000000       0.00000000
O        9.12495373       4.08595680      12.15581420  T       0.00000000       0.00000000       0.00000000
O        3.03799457       4.08492193      12.17255018  T       0.00000000       0.00000000       0.00000000
O        9.16169070       1.35177428       9.16102563  T       0.00000000       0.00000000       0.00000000
O        9.16077827       1.35539012       6.10801450  F       0.00000000       0.00000000       0.00000000
O        9.16078421       4.05045012       6.10800209  F       0.00000000       0.00000000       0.00000000
O        9.16077813       1.35146153       3.02679635  F       0.00000000       0.00000000       0.00000000
O        9.16077813       4.05438459       3.02679635  F       0.00000000       0.00000000       0.00000000
O        6.08576649       6.70213854      12.16155343  T       0.00000000       0.00000000       0.00000000
O        6.10247601       9.49774312      12.16806863  T       0.00000000       0.00000000       0.00000000
O        6.09939213       6.75757108       9.16465571  T       0.00000000       0.00000000       0.00000000
O        6.11032572       9.45348878       9.16641907  T       0.00000000       0.00000000       0.00000000
O        9.15748958       4.05634554       9.17775321  T       0.00000000       0.00000000       0.00000000
O        3.05583583       1.35190892       9.16682704  T       0.00000000       0.00000000       0.00000000
O        9.12127660       6.72458705      12.14996329  T       0.00000000       0.00000000       0.00000000
O       12.20721905       9.49499541      12.16926349  T       0.00000000       0.00000000       0.00000000
O        0.00000000       6.75730765       3.02679635  F       0.00000000       0.00000000       0.00000000
O        3.04786591       4.04617632       9.17055612  T       0.00000000       0.00000000       0.00000000
O       -0.00269084       1.29424850      12.15038952  T       0.00000000       0.00000000       0.00000000
O        0.00000951       9.45630243       6.10801529  F       0.00000000       0.00000000       0.00000000
O       12.21463362       4.08762417      12.15344525  T       0.00000000       0.00000000       0.00000000
O        0.00000182       6.76124509       6.10800952  F       0.00000000       0.00000000       0.00000000
O        0.00288174       9.46147524       9.16055335  T       0.00000000       0.00000000       0.00000000
O        0.00407913       1.35178193       9.15958235  T       0.00000000       0.00000000       0.00000000
O       -0.00067065       6.76047759       9.17311160  T       0.00000000       0.00000000       0.00000000
O       12.20952362       4.05664351       9.17689522  T       0.00000000       0.00000000       0.00000000
O       12.22079478       6.71209538      12.13032397  T       0.00000000       0.00000000       0.00000000
O        0.00000448       1.35539672       6.10801283  F       0.00000000       0.00000000       0.00000000
O        0.00000331       4.05045002       6.10801189  F       0.00000000       0.00000000       0.00000000
O        3.05359271       4.05438459       3.02679635  F       0.00000000       0.00000000       0.00000000
O        0.00000000       9.46023072       3.02679635  F       0.00000000       0.00000000       0.00000000
O        3.05359105       4.05044320       6.10802763  F       0.00000000       0.00000000       0.00000000
O        3.05359271       1.35146153       3.02679635  F       0.00000000       0.00000000       0.00000000
O        3.05359652       1.35540103       6.10801944  F       0.00000000       0.00000000       0.00000000
O        0.00000000       4.05438459       3.02679635  F       0.00000000       0.00000000       0.00000000
O        0.00000000       1.35146153       3.02679635  F       0.00000000       0.00000000       0.00000000
Pd       7.61304203       5.40023110      12.01648280  T       0.00000000       0.00000000       0.00000000
Pd      10.66532805       5.40825387      12.09901582  T       0.00000000       0.00000000       0.00000000
Pd       0.00000000       8.10876919       1.50000000  F       0.00000000       0.00000000       0.00000000
Pd       9.14860681       8.11403851      10.75230651  T       0.00000000       0.00000000       0.00000000
Pd       1.52679635       0.00000000       3.02679635  F       0.00000000       0.00000000       0.00000000
Pd       9.16077813       2.70292306       1.50000000  F       0.00000000       0.00000000       0.00000000
Pd      10.68757448       0.00000000       3.02679635  F       0.00000000       0.00000000       0.00000000
Pd      10.68283411       5.40988192       9.18791713  T       0.00000000       0.00000000       0.00000000
Pd       1.52183268      -0.01219793      12.01816673  T       0.00000000       0.00000000       0.00000000
Pd       9.16077900       2.70292450       4.56559698  F       0.00000000       0.00000000       0.00000000
Pd      10.68756280      10.81168006       6.11657659  F       0.00000000       0.00000000       0.00000000
Pd       9.16077776       8.10875607       4.56559406  F       0.00000000       0.00000000       0.00000000
Pd       1.52678677       0.00000067       6.11658292  F       0.00000000       0.00000000       0.00000000
Pd       9.16449467       8.10573955       7.64838252  T       0.00000000       0.00000000       0.00000000
Pd       9.16265720       2.70754667       7.64946935  T       0.00000000       0.00000000       0.00000000
Pd      10.69070854       0.00237130       9.13438425  T       0.00000000       0.00000000       0.00000000
Pd       0.00000135       2.70292705       4.56560641  F       0.00000000       0.00000000       0.00000000
Pd       1.53154246      10.81017034       9.13658677  T       0.00000000       0.00000000       0.00000000
Pd       9.14944500       2.69660046      10.75242502  T       0.00000000       0.00000000       0.00000000
Pd       6.09695421       8.10272505      10.76211046  T       0.00000000       0.00000000       0.00000000
Pd      10.68355697      10.80384689      12.01088764  T       0.00000000       0.00000000       0.00000000
Pd      -0.00225184       2.70730367       7.64873332  T       0.00000000       0.00000000       0.00000000
Pd      10.68757280       5.40584816       6.11657764  F       0.00000000       0.00000000       0.00000000
Pd       9.16077813       8.10876919       1.50000000  F       0.00000000       0.00000000       0.00000000
Pd      10.68757448       5.40584612       3.02679635  F       0.00000000       0.00000000       0.00000000
Pd      12.21334707       2.69638691      10.75168054  T       0.00000000       0.00000000       0.00000000
Pd       4.58320116      -0.00401335       9.14051653  T       0.00000000       0.00000000       0.00000000
Pd       7.63397856       5.40585179       6.11657833  F       0.00000000       0.00000000       0.00000000
Pd       7.62635955       5.40553318       9.14315076  T       0.00000000       0.00000000       0.00000000
Pd       4.56546366       5.38975721      12.01737366  T       0.00000000       0.00000000       0.00000000
Pd       3.05259205       8.10154907      10.76481311  T       0.00000000       0.00000000       0.00000000
Pd       4.58038906       0.00000000       3.02679635  F       0.00000000       0.00000000       0.00000000
Pd       4.57616094       5.40000240       9.14041336  T       0.00000000       0.00000000       0.00000000
Pd       3.05516923       8.10695191       7.64946558  T       0.00000000       0.00000000       0.00000000
Pd       3.05359494       2.70292824       4.56560681  F       0.00000000       0.00000000       0.00000000
Pd       3.05359271       2.70292306       1.50000000  F       0.00000000       0.00000000       0.00000000
Pd       4.58039501       5.40584640       6.11658908  F       0.00000000       0.00000000       0.00000000
Pd       4.58040505      10.81168838       6.11658203  F       0.00000000       0.00000000       0.00000000
Pd       4.58038906       5.40584612       3.02679635  F       0.00000000       0.00000000       0.00000000
Pd       3.05359271       8.10876919       1.50000000  F       0.00000000       0.00000000       0.00000000
Pd       3.05240718       2.70197048       7.64978914  T       0.00000000       0.00000000       0.00000000
Pd       4.57572263      -0.00978991      12.01989548  T       0.00000000       0.00000000       0.00000000
Pd       3.04471953       2.69213251      10.76504343  T       0.00000000       0.00000000       0.00000000
Pd       3.05359569       8.10876742       4.56559865  F       0.00000000       0.00000000       0.00000000
Pd       6.10718542       2.70292306       1.50000000  F       0.00000000       0.00000000       0.00000000
Pd       7.63398177       0.00000000       3.02679635  F       0.00000000       0.00000000       0.00000000
Pd       1.52019627       5.39212279      12.00959309  T       0.00000000       0.00000000       0.00000000
Pd       6.10529281       8.10688488       7.64840256  T       0.00000000       0.00000000       0.00000000
Pd       0.00000079       8.10876600       4.56559869  F       0.00000000       0.00000000       0.00000000
Pd       6.10718651       8.10875952       4.56558968  F       0.00000000       0.00000000       0.00000000
Pd       1.52680247       5.40584247       6.11658534  F       0.00000000       0.00000000       0.00000000
Pd       7.63398177       5.40584612       3.02679635  F       0.00000000       0.00000000       0.00000000
Pd       6.10718542       8.10876919       1.50000000  F       0.00000000       0.00000000       0.00000000
Pd      -0.00310813       8.10671077       7.64739317  T       0.00000000       0.00000000       0.00000000
Pd       7.63056015      10.80141018      12.01655065  T       0.00000000       0.00000000       0.00000000
Pd       6.10611427       2.69364832      10.76134167  T       0.00000000       0.00000000       0.00000000
Pd       1.52595050       5.40516130       9.14313861  T       0.00000000       0.00000000       0.00000000
Pd       7.63579306      -0.00131260       9.13423621  T       0.00000000       0.00000000       0.00000000
Pd       6.10780400       2.70199097       7.64868279  T       0.00000000       0.00000000       0.00000000
Pd      12.21484990       8.11711485      10.74771143  T       0.00000000       0.00000000       0.00000000
Pd       7.63399583      10.81167532       6.11657540  F       0.00000000       0.00000000       0.00000000
Pd       6.10718592       2.70292523       4.56558724  F       0.00000000       0.00000000       0.00000000
Pd       1.52679635       5.40584612       3.02679635  F       0.00000000       0.00000000       0.00000000
Pd       0.00000000       2.70292306       1.50000000  F       0.00000000       0.00000000       0.00000000
O       10.60841502       5.40162616      14.09221163  T       0.00000000       0.00000000       0.00000000
C       10.96485277       6.60333356      14.74542748  T       0.00000000       0.00000000       0.00000000
H       10.88033911       6.33461636      15.82056270  T       0.00000000       0.00000000       0.00000000
H       12.00362616       6.92662910      14.53095630  T       0.00000000       0.00000000       0.00000000
H       10.27531838       7.44606528      14.52720326  T       0.00000000       0.00000000       0.00000000
