133
Lattice="12.21437083684855 0.0 7e-16 1.7e-15 10.811692246786171 7e-16 0.0 0.0 30.687574482242482" Properties=species:S:1:pos:R:3:move_mask:L:1:momenta:R:3 adsorbate_info="_JSON {\"site\": {\"coordinates\": [8.397382315483112, 0.6445493094960787, 12.046277661002216], \"connectivity\": 2, \"topology\": [28, 118], \"n_vector\": [-0.03604890325060736, 0.09209637979883283, 0.995097348706335], \"h_vector\": [0.7621708099826876, 0.6435253443790898, 0.07050381232321969], \"site_formula\": {\"O\": 1, \"Pd\": 1}}, \"smiles\": \"ClOC\", \"mdf\": 1.963818650712675, \"adsorbate_formula\": \"CH3O\"}" mace_E=-698.5787392189013 converged=T n_steps=52 d_min=1.9978926878574033 site_type=atop dE_rel_meV=0 original_idx=268 rank=8 E_MACE=-698.6253582037236 pbc="T T T"
O        3.11778911       6.71050305      12.15541296  T       0.00000000       0.00000000       0.00000000
O        6.17004914       1.32437514      12.16930791  T       0.00000000       0.00000000       0.00000000
O        6.16931302       4.10121541      12.16003571  T       0.00000000       0.00000000       0.00000000
O        6.15897070       1.35494323       9.18194115  T       0.00000000       0.00000000       0.00000000
O        6.15179962       4.05370943       9.16420412  T       0.00000000       0.00000000       0.00000000
O        6.10718343       1.35539432       6.10801899  F       0.00000000       0.00000000       0.00000000
O        6.10718534       4.05045008       6.10801162  F       0.00000000       0.00000000       0.00000000
O        6.10718542       1.35146153       3.02679635  F       0.00000000       0.00000000       0.00000000
O        6.10718542       4.05438459       3.02679635  F       0.00000000       0.00000000       0.00000000
O        9.26499630       9.49576089      12.16829338  T       0.00000000       0.00000000       0.00000000
O        3.13834562       9.50897567      12.15321071  T       0.00000000       0.00000000       0.00000000
O        3.09556923       6.75787686       9.16025361  T       0.00000000       0.00000000       0.00000000
O        3.10378118       9.45888562       9.16209658  T       0.00000000       0.00000000       0.00000000
O        3.05359341       6.76124998       6.10801980  F       0.00000000       0.00000000       0.00000000
O        3.05359360       9.45629444       6.10802097  F       0.00000000       0.00000000       0.00000000
O        3.05359271       6.75730765       3.02679635  F       0.00000000       0.00000000       0.00000000
O        3.05359271       9.46023072       3.02679635  F       0.00000000       0.00000000       0.00000000
O        3.13930432       1.30703201      12.16028361  T       0.00000000       0.00000000       0.00000000
O        6.10718542       9.46023072       3.02679635  F       0.00000000       0.00000000       0.00000000
O        6.10718542       6.75730765       3.02679635  F       0.00000000       0.00000000       0.00000000
O        6.10718028       9.45628983       6.10801454  F       0.00000000       0.00000000       0.00000000
O        6.10718760       6.76124043       6.10802244  F       0.00000000       0.00000000       0.00000000
O        9.20023255       6.76224060       9.16688956  T       0.00000000       0.00000000       0.00000000
O        9.21238020       9.46016241       9.18400930  T       0.00000000       0.00000000       0.00000000
O        9.16078073       6.76123572       6.10801818  F       0.00000000       0.00000000       0.00000000
O        9.16078059       9.45627785       6.10801483  F       0.00000000       0.00000000       0.00000000
O        9.16077813       6.75730765       3.02679635  F       0.00000000       0.00000000       0.00000000
O        9.16077813       9.46023072       3.02679635  F       0.00000000       0.00000000       0.00000000
O        9.26183101       1.31616023      12.15828799  T       0.00000000       0.00000000       0.00000000
O        9.22321737       4.09980920      12.16638133  T       0.00000000       0.00000000       0.00000000
O        3.11443041       4.09972670      12.17016920  T       0.00000000       0.00000000       0.00000000
O        9.21359617       1.35593409       9.18065313  T       0.00000000       0.00000000       0.00000000
O        9.16077827       1.35539012       6.10801450  F       0.00000000       0.00000000       0.00000000
O        9.16078421       4.05045012       6.10800209  F       0.00000000       0.00000000       0.00000000
O        9.16077813       1.35146153       3.02679635  F       0.00000000       0.00000000       0.00000000
O        9.16077813       4.05438459       3.02679635  F       0.00000000       0.00000000       0.00000000
O        6.16737499       6.70488900      12.14485314  T       0.00000000       0.00000000       0.00000000
O        6.17103635       9.49090787      12.16207210  T       0.00000000       0.00000000       0.00000000
O        6.15019809       6.76009187       9.15999362  T       0.00000000       0.00000000       0.00000000
O        6.15966415       9.46420339       9.18029306  T       0.00000000       0.00000000       0.00000000
O        9.20148997       4.05230049       9.16680549  T       0.00000000       0.00000000       0.00000000
O        3.10276881       1.35667732       9.16695883  T       0.00000000       0.00000000       0.00000000
O        9.22338157       6.70933382      12.16174725  T       0.00000000       0.00000000       0.00000000
O       12.30257173       9.50586599      12.16594357  T       0.00000000       0.00000000       0.00000000
O        0.00000000       6.75730765       3.02679635  F       0.00000000       0.00000000       0.00000000
O        3.09274068       4.05440223       9.16395873  T       0.00000000       0.00000000       0.00000000
O        0.08528925       1.30975635      12.16929560  T       0.00000000       0.00000000       0.00000000
O        0.00000951       9.45630243       6.10801529  F       0.00000000       0.00000000       0.00000000
O       12.27827514       4.10170644      12.17179166  T       0.00000000       0.00000000       0.00000000
O        0.00000182       6.76124509       6.10800952  F       0.00000000       0.00000000       0.00000000
O        0.04795411       9.45930172       9.16661670  T       0.00000000       0.00000000       0.00000000
O        0.05100098       1.35681677       9.17106392  T       0.00000000       0.00000000       0.00000000
O        0.03785362       6.76033057       9.16661506  T       0.00000000       0.00000000       0.00000000
O       12.25393385       4.05295984       9.16868434  T       0.00000000       0.00000000       0.00000000
O       12.27760264       6.71135172      12.16278983  T       0.00000000       0.00000000       0.00000000
O        0.00000448       1.35539672       6.10801283  F       0.00000000       0.00000000       0.00000000
O        0.00000331       4.05045002       6.10801189  F       0.00000000       0.00000000       0.00000000
O        3.05359271       4.05438459       3.02679635  F       0.00000000       0.00000000       0.00000000
O        0.00000000       9.46023072       3.02679635  F       0.00000000       0.00000000       0.00000000
O        3.05359105       4.05044320       6.10802763  F       0.00000000       0.00000000       0.00000000
O        3.05359271       1.35146153       3.02679635  F       0.00000000       0.00000000       0.00000000
O        3.05359652       1.35540103       6.10801944  F       0.00000000       0.00000000       0.00000000
O        0.00000000       4.05438459       3.02679635  F       0.00000000       0.00000000       0.00000000
O        0.00000000       1.35146153       3.02679635  F       0.00000000       0.00000000       0.00000000
Pd       7.69652355       5.40342698      12.00657763  T       0.00000000       0.00000000       0.00000000
Pd      10.75047050       5.40509746      12.01773234  T       0.00000000       0.00000000       0.00000000
Pd       0.00000000       8.10876919       1.50000000  F       0.00000000       0.00000000       0.00000000
Pd       9.22526359       8.10728596      10.76201487  T       0.00000000       0.00000000       0.00000000
Pd       1.52679635       0.00000000       3.02679635  F       0.00000000       0.00000000       0.00000000
Pd       9.16077813       2.70292306       1.50000000  F       0.00000000       0.00000000       0.00000000
Pd      10.68757448       0.00000000       3.02679635  F       0.00000000       0.00000000       0.00000000
Pd      10.72689143       5.40674965       9.13505748  T       0.00000000       0.00000000       0.00000000
Pd       1.61460571       0.00119171      12.01272454  T       0.00000000       0.00000000       0.00000000
Pd       9.16077900       2.70292450       4.56559698  F       0.00000000       0.00000000       0.00000000
Pd      10.68756280      10.81168006       6.11657659  F       0.00000000       0.00000000       0.00000000
Pd       9.16077776       8.10875607       4.56559406  F       0.00000000       0.00000000       0.00000000
Pd       1.52678677       0.00000067       6.11658292  F       0.00000000       0.00000000       0.00000000
Pd       9.17862634       8.11359973       7.65220637  T       0.00000000       0.00000000       0.00000000
Pd       9.17970637       2.69840247       7.65143661  T       0.00000000       0.00000000       0.00000000
Pd      10.74034566       0.00222180       9.14574358  T       0.00000000       0.00000000       0.00000000
Pd       0.00000135       2.70292705       4.56560641  F       0.00000000       0.00000000       0.00000000
Pd       1.57706839      10.81315831       9.13557532  T       0.00000000       0.00000000       0.00000000
Pd       9.22393616       2.70973043      10.76147729  T       0.00000000       0.00000000       0.00000000
Pd       6.16636816       8.10884893      10.75112538  T       0.00000000       0.00000000       0.00000000
Pd      10.78467936      10.81149442      12.00999298  T       0.00000000       0.00000000       0.00000000
Pd       0.02355637       2.70350595       7.65187509  T       0.00000000       0.00000000       0.00000000
Pd      10.68757280       5.40584816       6.11657764  F       0.00000000       0.00000000       0.00000000
Pd       9.16077813       8.10876919       1.50000000  F       0.00000000       0.00000000       0.00000000
Pd      10.68757448       5.40584612       3.02679635  F       0.00000000       0.00000000       0.00000000
Pd      12.27752363       2.70696517      10.76604560  T       0.00000000       0.00000000       0.00000000
Pd       4.62988660       0.00308710       9.14435680  T       0.00000000       0.00000000       0.00000000
Pd       7.63397856       5.40585179       6.11657833  F       0.00000000       0.00000000       0.00000000
Pd       7.67596107       5.40638153       9.13294640  T       0.00000000       0.00000000       0.00000000
Pd       4.64062323       5.40232077      12.00929489  T       0.00000000       0.00000000       0.00000000
Pd       3.11729468       8.10856437      10.75375907  T       0.00000000       0.00000000       0.00000000
Pd       4.58038906       0.00000000       3.02679635  F       0.00000000       0.00000000       0.00000000
Pd       4.62259803       5.40606996       9.12920615  T       0.00000000       0.00000000       0.00000000
Pd       3.07655021       8.10877017       7.64723542  T       0.00000000       0.00000000       0.00000000
Pd       3.05359494       2.70292824       4.56560681  F       0.00000000       0.00000000       0.00000000
Pd       3.05359271       2.70292306       1.50000000  F       0.00000000       0.00000000       0.00000000
Pd       4.58039501       5.40584640       6.11658908  F       0.00000000       0.00000000       0.00000000
Pd       4.58040505      10.81168838       6.11658203  F       0.00000000       0.00000000       0.00000000
Pd       4.58038906       5.40584612       3.02679635  F       0.00000000       0.00000000       0.00000000
Pd       3.05359271       8.10876919       1.50000000  F       0.00000000       0.00000000       0.00000000
Pd       3.07420120       2.70422695       7.64940000  T       0.00000000       0.00000000       0.00000000
Pd       4.66582096       0.00310729      12.01612655  T       0.00000000       0.00000000       0.00000000
Pd       3.11296261       2.70650038      10.76142082  T       0.00000000       0.00000000       0.00000000
Pd       3.05359569       8.10876742       4.56559865  F       0.00000000       0.00000000       0.00000000
Pd       6.10718542       2.70292306       1.50000000  F       0.00000000       0.00000000       0.00000000
Pd       7.63398177       0.00000000       3.02679635  F       0.00000000       0.00000000       0.00000000
Pd       1.58973405       5.40645610      12.01956803  T       0.00000000       0.00000000       0.00000000
Pd       6.13689356       8.11431459       7.65003547  T       0.00000000       0.00000000       0.00000000
Pd       0.00000079       8.10876600       4.56559869  F       0.00000000       0.00000000       0.00000000
Pd       6.10718651       8.10875952       4.56558968  F       0.00000000       0.00000000       0.00000000
Pd       1.52680247       5.40584247       6.11658534  F       0.00000000       0.00000000       0.00000000
Pd       7.63398177       5.40584612       3.02679635  F       0.00000000       0.00000000       0.00000000
Pd       6.10718542       8.10876919       1.50000000  F       0.00000000       0.00000000       0.00000000
Pd       0.02079449       8.10974785       7.65025333  T       0.00000000       0.00000000       0.00000000
Pd       7.71403645      10.81060047      12.13281368  T       0.00000000       0.00000000       0.00000000
Pd       6.16591637       2.70555914      10.75819651  T       0.00000000       0.00000000       0.00000000
Pd       1.56588509       5.40755192       9.13477111  T       0.00000000       0.00000000       0.00000000
Pd       7.68736051       0.00301883       9.19534415  T       0.00000000       0.00000000       0.00000000
Pd       6.13581819       2.70057812       7.65173067  T       0.00000000       0.00000000       0.00000000
Pd      12.27418704       8.10857274      10.76146284  T       0.00000000       0.00000000       0.00000000
Pd       7.63399583      10.81167532       6.11657540  F       0.00000000       0.00000000       0.00000000
Pd       6.10718592       2.70292523       4.56558724  F       0.00000000       0.00000000       0.00000000
Pd       1.52679635       5.40584612       3.02679635  F       0.00000000       0.00000000       0.00000000
Pd       0.00000000       2.70292306       1.50000000  F       0.00000000       0.00000000       0.00000000
O        7.60852335      -0.03532486      14.12893674  T       0.00000000       0.00000000       0.00000000
C        8.74874303       0.38557047      14.84184010  T       0.00000000       0.00000000       0.00000000
H        8.54665787       0.07638947      15.89041906  T       0.00000000       0.00000000       0.00000000
H        9.68789955      -0.11840953      14.51423571  T       0.00000000       0.00000000       0.00000000
H        8.90837601       1.48295382      14.80579274  T       0.00000000       0.00000000       0.00000000
