133
Lattice="12.21437083684855 0.0 7e-16 1.7e-15 10.811692246786171 7e-16 0.0 0.0 30.687574482242482" Properties=species:S:1:pos:R:3:move_mask:L:1:momenta:R:3 adsorbate_info="_JSON {\"site\": {\"coordinates\": [8.65184271291933, 5.405856674351603, 12.069821455412717], \"connectivity\": 3, \"topology\": [29, 42, 64], \"n_vector\": [-0.047900983404911154, -0.06498011123835824, 0.9967362143176564], \"h_vector\": [-0.7622109312445123, 0.6434774147312797, -0.07050753876091566], \"site_formula\": {\"O\": 2, \"Pd\": 1}}, \"smiles\": \"ClOC\", \"mdf\": 1.9618858713743967, \"adsorbate_formula\": \"CH3O\"}" mace_E=-698.5958675635652 converged=T n_steps=57 d_min=2.795684299035151 site_type=unknown dE_rel_meV=0 original_idx=282 rank=403 E_MACE=-697.4840359091795 pbc="T T T"
O        3.08621132       6.70171429      12.15688202  T       0.00000000       0.00000000       0.00000000
O        6.15123398       1.30225017      12.16670069  T       0.00000000       0.00000000       0.00000000
O        6.11990222       4.07373539      12.17226867  T       0.00000000       0.00000000       0.00000000
O        6.13966435       1.35187996       9.16158204  T       0.00000000       0.00000000       0.00000000
O        6.13351770       4.04824993       9.18130959  T       0.00000000       0.00000000       0.00000000
O        6.10718343       1.35539432       6.10801899  F       0.00000000       0.00000000       0.00000000
O        6.10718534       4.05045008       6.10801162  F       0.00000000       0.00000000       0.00000000
O        6.10718542       1.35146153       3.02679635  F       0.00000000       0.00000000       0.00000000
O        6.10718542       4.05438459       3.02679635  F       0.00000000       0.00000000       0.00000000
O        9.20760642       9.50655117      12.16076197  T       0.00000000       0.00000000       0.00000000
O        3.10276742       9.49868154      12.16168893  T       0.00000000       0.00000000       0.00000000
O        3.08064637       6.75432789       9.16322230  T       0.00000000       0.00000000       0.00000000
O        3.09062188       9.45104890       9.16430253  T       0.00000000       0.00000000       0.00000000
O        3.05359341       6.76124998       6.10801980  F       0.00000000       0.00000000       0.00000000
O        3.05359360       9.45629444       6.10802097  F       0.00000000       0.00000000       0.00000000
O        3.05359271       6.75730765       3.02679635  F       0.00000000       0.00000000       0.00000000
O        3.05359271       9.46023072       3.02679635  F       0.00000000       0.00000000       0.00000000
O        3.09899692       1.29572585      12.16720998  T       0.00000000       0.00000000       0.00000000
O        6.10718542       9.46023072       3.02679635  F       0.00000000       0.00000000       0.00000000
O        6.10718542       6.75730765       3.02679635  F       0.00000000       0.00000000       0.00000000
O        6.10718028       9.45628983       6.10801454  F       0.00000000       0.00000000       0.00000000
O        6.10718760       6.76124043       6.10802244  F       0.00000000       0.00000000       0.00000000
O        9.18796881       6.75539555       9.17837950  T       0.00000000       0.00000000       0.00000000
O        9.19479086       9.45561542       9.16621099  T       0.00000000       0.00000000       0.00000000
O        9.16078073       6.76123572       6.10801818  F       0.00000000       0.00000000       0.00000000
O        9.16078059       9.45627785       6.10801483  F       0.00000000       0.00000000       0.00000000
O        9.16077813       6.75730765       3.02679635  F       0.00000000       0.00000000       0.00000000
O        9.16077813       9.46023072       3.02679635  F       0.00000000       0.00000000       0.00000000
O        9.20881344       1.30391409      12.16170892  T       0.00000000       0.00000000       0.00000000
O        9.21011487       4.08805341      12.14786299  T       0.00000000       0.00000000       0.00000000
O        3.08598891       4.08897270      12.16539566  T       0.00000000       0.00000000       0.00000000
O        9.19739107       1.34983258       9.15867666  T       0.00000000       0.00000000       0.00000000
O        9.16077827       1.35539012       6.10801450  F       0.00000000       0.00000000       0.00000000
O        9.16078421       4.05045012       6.10800209  F       0.00000000       0.00000000       0.00000000
O        9.16077813       1.35146153       3.02679635  F       0.00000000       0.00000000       0.00000000
O        9.16077813       4.05438459       3.02679635  F       0.00000000       0.00000000       0.00000000
O        6.11818758       6.71706573      12.16086507  T       0.00000000       0.00000000       0.00000000
O        6.15504707       9.50475564      12.16310916  T       0.00000000       0.00000000       0.00000000
O        6.13431644       6.75548384       9.18121613  T       0.00000000       0.00000000       0.00000000
O        6.14222703       9.45517732       9.16531387  T       0.00000000       0.00000000       0.00000000
O        9.19007087       4.05158818       9.17303092  T       0.00000000       0.00000000       0.00000000
O        3.08815053       1.35066221       9.16234927  T       0.00000000       0.00000000       0.00000000
O        9.21081406       6.71539278      12.16230112  T       0.00000000       0.00000000       0.00000000
O       12.25974832       9.50048854      12.16392358  T       0.00000000       0.00000000       0.00000000
O        0.00000000       6.75730765       3.02679635  F       0.00000000       0.00000000       0.00000000
O        3.08099688       4.04640175       9.16889407  T       0.00000000       0.00000000       0.00000000
O        0.05060253       1.29749404      12.16422854  T       0.00000000       0.00000000       0.00000000
O        0.00000951       9.45630243       6.10801529  F       0.00000000       0.00000000       0.00000000
O       12.24565499       4.09218243      12.16799413  T       0.00000000       0.00000000       0.00000000
O        0.00000182       6.76124509       6.10800952  F       0.00000000       0.00000000       0.00000000
O        0.03672067       9.45132828       9.16567104  T       0.00000000       0.00000000       0.00000000
O        0.03908142       1.35118159       9.16259829  T       0.00000000       0.00000000       0.00000000
O        0.02925875       6.75629319       9.16505533  T       0.00000000       0.00000000       0.00000000
O       12.24233509       4.04646689       9.16821527  T       0.00000000       0.00000000       0.00000000
O       12.25127414       6.70580623      12.16610327  T       0.00000000       0.00000000       0.00000000
O        0.00000448       1.35539672       6.10801283  F       0.00000000       0.00000000       0.00000000
O        0.00000331       4.05045002       6.10801189  F       0.00000000       0.00000000       0.00000000
O        3.05359271       4.05438459       3.02679635  F       0.00000000       0.00000000       0.00000000
O        0.00000000       9.46023072       3.02679635  F       0.00000000       0.00000000       0.00000000
O        3.05359105       4.05044320       6.10802763  F       0.00000000       0.00000000       0.00000000
O        3.05359271       1.35146153       3.02679635  F       0.00000000       0.00000000       0.00000000
O        3.05359652       1.35540103       6.10801944  F       0.00000000       0.00000000       0.00000000
O        0.00000000       4.05438459       3.02679635  F       0.00000000       0.00000000       0.00000000
O        0.00000000       1.35146153       3.02679635  F       0.00000000       0.00000000       0.00000000
Pd       7.65882791       5.40115341      12.11966937  T       0.00000000       0.00000000       0.00000000
Pd      10.72744590       5.40312064      12.01133471  T       0.00000000       0.00000000       0.00000000
Pd       0.00000000       8.10876919       1.50000000  F       0.00000000       0.00000000       0.00000000
Pd       9.19490899       8.10683067      10.75982516  T       0.00000000       0.00000000       0.00000000
Pd       1.52679635       0.00000000       3.02679635  F       0.00000000       0.00000000       0.00000000
Pd       9.16077813       2.70292306       1.50000000  F       0.00000000       0.00000000       0.00000000
Pd      10.68757448       0.00000000       3.02679635  F       0.00000000       0.00000000       0.00000000
Pd      10.71787092       5.40333525       9.14182919  T       0.00000000       0.00000000       0.00000000
Pd       1.57533356      -0.00976802      12.01380700  T       0.00000000       0.00000000       0.00000000
Pd       9.16077900       2.70292450       4.56559698  F       0.00000000       0.00000000       0.00000000
Pd      10.68756280      10.81168006       6.11657659  F       0.00000000       0.00000000       0.00000000
Pd       9.16077776       8.10875607       4.56559406  F       0.00000000       0.00000000       0.00000000
Pd       1.52678677       0.00000067       6.11658292  F       0.00000000       0.00000000       0.00000000
Pd       9.17215058       8.10473972       7.65111714  T       0.00000000       0.00000000       0.00000000
Pd       9.17353736       2.70454092       7.64737014  T       0.00000000       0.00000000       0.00000000
Pd      10.72659333      -0.00400260       9.13460415  T       0.00000000       0.00000000       0.00000000
Pd       0.00000135       2.70292705       4.56560641  F       0.00000000       0.00000000       0.00000000
Pd       1.56458735      10.80582032       9.13439774  T       0.00000000       0.00000000       0.00000000
Pd       9.19907914       2.69256738      10.74961889  T       0.00000000       0.00000000       0.00000000
Pd       6.14246216       8.10764254      10.76106327  T       0.00000000       0.00000000       0.00000000
Pd      10.73603917      10.80833615      12.01289627  T       0.00000000       0.00000000       0.00000000
Pd       0.01767432       2.70123995       7.64878484  T       0.00000000       0.00000000       0.00000000
Pd      10.68757280       5.40584816       6.11657764  F       0.00000000       0.00000000       0.00000000
Pd       9.16077813       8.10876919       1.50000000  F       0.00000000       0.00000000       0.00000000
Pd      10.68757448       5.40584612       3.02679635  F       0.00000000       0.00000000       0.00000000
Pd      12.25481209       2.69581228      10.76443723  T       0.00000000       0.00000000       0.00000000
Pd       4.61530468      -0.00376167       9.13575515  T       0.00000000       0.00000000       0.00000000
Pd       7.63397856       5.40585179       6.11657833  F       0.00000000       0.00000000       0.00000000
Pd       7.66140756       5.40267645       9.19203313  T       0.00000000       0.00000000       0.00000000
Pd       4.61198108       5.39459830      12.01871539  T       0.00000000       0.00000000       0.00000000
Pd       3.09050124       8.10221066      10.75973768  T       0.00000000       0.00000000       0.00000000
Pd       4.58038906       0.00000000       3.02679635  F       0.00000000       0.00000000       0.00000000
Pd       4.60639577       5.40120024       9.14795076  T       0.00000000       0.00000000       0.00000000
Pd       3.07097622       8.10526564       7.64791806  T       0.00000000       0.00000000       0.00000000
Pd       3.05359494       2.70292824       4.56560681  F       0.00000000       0.00000000       0.00000000
Pd       3.05359271       2.70292306       1.50000000  F       0.00000000       0.00000000       0.00000000
Pd       4.58039501       5.40584640       6.11658908  F       0.00000000       0.00000000       0.00000000
Pd       4.58040505      10.81168838       6.11658203  F       0.00000000       0.00000000       0.00000000
Pd       4.58038906       5.40584612       3.02679635  F       0.00000000       0.00000000       0.00000000
Pd       3.05359271       8.10876919       1.50000000  F       0.00000000       0.00000000       0.00000000
Pd       3.06903754       2.70205976       7.64915169  T       0.00000000       0.00000000       0.00000000
Pd       4.62788958      -0.00544717      12.01606491  T       0.00000000       0.00000000       0.00000000
Pd       3.08746728       2.69315341      10.76441628  T       0.00000000       0.00000000       0.00000000
Pd       3.05359569       8.10876742       4.56559865  F       0.00000000       0.00000000       0.00000000
Pd       6.10718542       2.70292306       1.50000000  F       0.00000000       0.00000000       0.00000000
Pd       7.63398177       0.00000000       3.02679635  F       0.00000000       0.00000000       0.00000000
Pd       1.55996631       5.39667043      12.01658199  T       0.00000000       0.00000000       0.00000000
Pd       6.12717361       8.10459036       7.65104545  T       0.00000000       0.00000000       0.00000000
Pd       0.00000079       8.10876600       4.56559869  F       0.00000000       0.00000000       0.00000000
Pd       6.10718651       8.10875952       4.56558968  F       0.00000000       0.00000000       0.00000000
Pd       1.52680247       5.40584247       6.11658534  F       0.00000000       0.00000000       0.00000000
Pd       7.63398177       5.40584612       3.02679635  F       0.00000000       0.00000000       0.00000000
Pd       6.10718542       8.10876919       1.50000000  F       0.00000000       0.00000000       0.00000000
Pd       0.01607029       8.10655818       7.64870472  T       0.00000000       0.00000000       0.00000000
Pd       7.68059740      10.81098932      12.01758121  T       0.00000000       0.00000000       0.00000000
Pd       6.13711417       2.69477280      10.76097855  T       0.00000000       0.00000000       0.00000000
Pd       1.55444169       5.40032041       9.14040675  T       0.00000000       0.00000000       0.00000000
Pd       7.66891185      -0.00160784       9.13685818  T       0.00000000       0.00000000       0.00000000
Pd       6.12616927       2.70487064       7.64973341  T       0.00000000       0.00000000       0.00000000
Pd      12.25294867       8.10316259      10.76412028  T       0.00000000       0.00000000       0.00000000
Pd       7.63399583      10.81167532       6.11657540  F       0.00000000       0.00000000       0.00000000
Pd       6.10718592       2.70292523       4.56558724  F       0.00000000       0.00000000       0.00000000
Pd       1.52679635       5.40584612       3.02679635  F       0.00000000       0.00000000       0.00000000
Pd       0.00000000       2.70292306       1.50000000  F       0.00000000       0.00000000       0.00000000
O        7.56141374       5.46077259      14.11518730  T       0.00000000       0.00000000       0.00000000
C        8.27356109       4.46683902      14.82001853  T       0.00000000       0.00000000       0.00000000
H        8.01371802       4.66910119      15.88140299  T       0.00000000       0.00000000       0.00000000
H        7.96050484       3.43491009      14.56276834  T       0.00000000       0.00000000       0.00000000
H        9.37692199       4.54766762      14.71102450  T       0.00000000       0.00000000       0.00000000
