133
Lattice="12.21437083684855 0.0 7e-16 1.7e-15 10.811692246786171 7e-16 0.0 0.0 30.687574482242482" Properties=species:S:1:pos:R:3:move_mask:L:1:momenta:R:3 adsorbate_info="_JSON {\"site\": {\"coordinates\": [10.687590445862378, 1.2891153792162742, 12.116895936438418], \"connectivity\": 2, \"topology\": [28, 46], \"n_vector\": [0.007050838757450331, 0.09666355937237267, 0.9952921390035593], \"h_vector\": [0.9999999999666517, -8.144562400610183e-06, -6.024330784657984e-07], \"site_formula\": {\"O\": 2}}, \"smiles\": \"ClOC\", \"mdf\": 2.124083513593257, \"adsorbate_formula\": \"CH3O\"}" mace_E=-698.584212820364 converged=T n_steps=49 d_min=1.994729392064845 site_type=unknown dE_rel_meV=0 original_idx=331 rank=201 E_MACE=-698.5859931042417 pbc="T T T"
O        3.05806178       6.71153890      12.15382519  T       0.00000000       0.00000000       0.00000000
O        6.14799925       1.30983288      12.16521551  T       0.00000000       0.00000000       0.00000000
O        6.11220092       4.10219307      12.18095407  T       0.00000000       0.00000000       0.00000000
O        6.12178163       1.36251762       9.17190842  T       0.00000000       0.00000000       0.00000000
O        6.10257973       4.05795065       9.16969581  T       0.00000000       0.00000000       0.00000000
O        6.10718343       1.35539432       6.10801899  F       0.00000000       0.00000000       0.00000000
O        6.10718534       4.05045008       6.10801162  F       0.00000000       0.00000000       0.00000000
O        6.10718542       1.35146153       3.02679635  F       0.00000000       0.00000000       0.00000000
O        6.10718542       4.05438459       3.02679635  F       0.00000000       0.00000000       0.00000000
O        9.18296549       9.49688258      12.17033206  T       0.00000000       0.00000000       0.00000000
O        3.09773648       9.50654910      12.16292894  T       0.00000000       0.00000000       0.00000000
O        3.04504101       6.76435836       9.16382304  T       0.00000000       0.00000000       0.00000000
O        3.06758453       9.46494121       9.16098991  T       0.00000000       0.00000000       0.00000000
O        3.05359341       6.76124998       6.10801980  F       0.00000000       0.00000000       0.00000000
O        3.05359360       9.45629444       6.10802097  F       0.00000000       0.00000000       0.00000000
O        3.05359271       6.75730765       3.02679635  F       0.00000000       0.00000000       0.00000000
O        3.05359271       9.46023072       3.02679635  F       0.00000000       0.00000000       0.00000000
O        3.09246864       1.30902710      12.15216622  T       0.00000000       0.00000000       0.00000000
O        6.10718542       9.46023072       3.02679635  F       0.00000000       0.00000000       0.00000000
O        6.10718542       6.75730765       3.02679635  F       0.00000000       0.00000000       0.00000000
O        6.10718028       9.45628983       6.10801454  F       0.00000000       0.00000000       0.00000000
O        6.10718760       6.76124043       6.10802244  F       0.00000000       0.00000000       0.00000000
O        9.15572380       6.76560018       9.16731100  T       0.00000000       0.00000000       0.00000000
O        9.18018404       9.46555480       9.18420111  T       0.00000000       0.00000000       0.00000000
O        9.16078073       6.76123572       6.10801818  F       0.00000000       0.00000000       0.00000000
O        9.16078059       9.45627785       6.10801483  F       0.00000000       0.00000000       0.00000000
O        9.16077813       6.75730765       3.02679635  F       0.00000000       0.00000000       0.00000000
O        9.16077813       9.46023072       3.02679635  F       0.00000000       0.00000000       0.00000000
O        9.18076437       1.33036087      12.16267592  T       0.00000000       0.00000000       0.00000000
O        9.16903821       4.10445171      12.16527329  T       0.00000000       0.00000000       0.00000000
O        3.06211219       4.10122823      12.17196776  T       0.00000000       0.00000000       0.00000000
O        9.17655433       1.35795738       9.18212638  T       0.00000000       0.00000000       0.00000000
O        9.16077827       1.35539012       6.10801450  F       0.00000000       0.00000000       0.00000000
O        9.16078421       4.05045012       6.10800209  F       0.00000000       0.00000000       0.00000000
O        9.16077813       1.35146153       3.02679635  F       0.00000000       0.00000000       0.00000000
O        9.16077813       4.05438459       3.02679635  F       0.00000000       0.00000000       0.00000000
O        6.11539671       6.71325920      12.16109079  T       0.00000000       0.00000000       0.00000000
O        6.14728005       9.51103799      12.16937496  T       0.00000000       0.00000000       0.00000000
O        6.10747945       6.76568784       9.17065196  T       0.00000000       0.00000000       0.00000000
O        6.12427002       9.46376574       9.16477299  T       0.00000000       0.00000000       0.00000000
O        9.15812953       4.05792438       9.16211699  T       0.00000000       0.00000000       0.00000000
O        3.07005824       1.36178261       9.16660214  T       0.00000000       0.00000000       0.00000000
O        9.16440292       6.70740508      12.15792491  T       0.00000000       0.00000000       0.00000000
O       12.27397001       9.49854381      12.17052787  T       0.00000000       0.00000000       0.00000000
O        0.00000000       6.75730765       3.02679635  F       0.00000000       0.00000000       0.00000000
O        3.04908824       4.06144607       9.16245487  T       0.00000000       0.00000000       0.00000000
O        0.05906819       1.31744744      12.13410419  T       0.00000000       0.00000000       0.00000000
O        0.00000951       9.45630243       6.10801529  F       0.00000000       0.00000000       0.00000000
O       12.21794688       4.10039068      12.16468811  T       0.00000000       0.00000000       0.00000000
O        0.00000182       6.76124509       6.10800952  F       0.00000000       0.00000000       0.00000000
O        0.01503151       9.46549031       9.18179194  T       0.00000000       0.00000000       0.00000000
O        0.01752051       1.35793995       9.17421512  T       0.00000000       0.00000000       0.00000000
O       -0.00651748       6.76665694       9.16558449  T       0.00000000       0.00000000       0.00000000
O       12.20721686       4.06001326       9.15802134  T       0.00000000       0.00000000       0.00000000
O       12.22440804       6.70618961      12.15659517  T       0.00000000       0.00000000       0.00000000
O        0.00000448       1.35539672       6.10801283  F       0.00000000       0.00000000       0.00000000
O        0.00000331       4.05045002       6.10801189  F       0.00000000       0.00000000       0.00000000
O        3.05359271       4.05438459       3.02679635  F       0.00000000       0.00000000       0.00000000
O        0.00000000       9.46023072       3.02679635  F       0.00000000       0.00000000       0.00000000
O        3.05359105       4.05044320       6.10802763  F       0.00000000       0.00000000       0.00000000
O        3.05359271       1.35146153       3.02679635  F       0.00000000       0.00000000       0.00000000
O        3.05359652       1.35540103       6.10801944  F       0.00000000       0.00000000       0.00000000
O        0.00000000       4.05438459       3.02679635  F       0.00000000       0.00000000       0.00000000
O        0.00000000       1.35146153       3.02679635  F       0.00000000       0.00000000       0.00000000
Pd       7.63829151       5.40492532      12.01926296  T       0.00000000       0.00000000       0.00000000
Pd      10.69311587       5.40797755      12.00603389  T       0.00000000       0.00000000       0.00000000
Pd       0.00000000       8.10876919       1.50000000  F       0.00000000       0.00000000       0.00000000
Pd       9.17193665       8.11135488      10.76445437  T       0.00000000       0.00000000       0.00000000
Pd       1.52679635       0.00000000       3.02679635  F       0.00000000       0.00000000       0.00000000
Pd       9.16077813       2.70292306       1.50000000  F       0.00000000       0.00000000       0.00000000
Pd      10.68757448       0.00000000       3.02679635  F       0.00000000       0.00000000       0.00000000
Pd      10.68066830       5.41363638       9.13541406  T       0.00000000       0.00000000       0.00000000
Pd       1.57803414      -0.00213388      12.00108247  T       0.00000000       0.00000000       0.00000000
Pd       9.16077900       2.70292450       4.56559698  F       0.00000000       0.00000000       0.00000000
Pd      10.68756280      10.81168006       6.11657659  F       0.00000000       0.00000000       0.00000000
Pd       9.16077776       8.10875607       4.56559406  F       0.00000000       0.00000000       0.00000000
Pd       1.52678677       0.00000067       6.11658292  F       0.00000000       0.00000000       0.00000000
Pd       9.16780949       8.11361982       7.65309483  T       0.00000000       0.00000000       0.00000000
Pd       9.16925033       2.70440112       7.65075525  T       0.00000000       0.00000000       0.00000000
Pd      10.70532609       0.00725367       9.19695149  T       0.00000000       0.00000000       0.00000000
Pd       0.00000135       2.70292705       4.56560641  F       0.00000000       0.00000000       0.00000000
Pd       1.54512637      10.81848547       9.14228745  T       0.00000000       0.00000000       0.00000000
Pd       9.17130502       2.71402700      10.75615033  T       0.00000000       0.00000000       0.00000000
Pd       6.12614960       8.11587386      10.76533536  T       0.00000000       0.00000000       0.00000000
Pd      10.72445235      10.81550005      12.11471533  T       0.00000000       0.00000000       0.00000000
Pd      -0.00393783       2.70496027       7.64752570  T       0.00000000       0.00000000       0.00000000
Pd      10.68757280       5.40584816       6.11657764  F       0.00000000       0.00000000       0.00000000
Pd       9.16077813       8.10876919       1.50000000  F       0.00000000       0.00000000       0.00000000
Pd      10.68757448       5.40584612       3.02679635  F       0.00000000       0.00000000       0.00000000
Pd      12.23073258       2.71895546      10.74716914  T       0.00000000       0.00000000       0.00000000
Pd       4.59716233       0.00708751       9.13598264  T       0.00000000       0.00000000       0.00000000
Pd       7.63397856       5.40585179       6.11657833  F       0.00000000       0.00000000       0.00000000
Pd       7.62987441       5.41020600       9.13947859  T       0.00000000       0.00000000       0.00000000
Pd       4.58731298       5.40807162      12.02366584  T       0.00000000       0.00000000       0.00000000
Pd       3.06553935       8.11285656      10.75797698  T       0.00000000       0.00000000       0.00000000
Pd       4.58038906       0.00000000       3.02679635  F       0.00000000       0.00000000       0.00000000
Pd       4.57586806       5.41383576       9.13874430  T       0.00000000       0.00000000       0.00000000
Pd       3.05320295       8.11061108       7.64836178  T       0.00000000       0.00000000       0.00000000
Pd       3.05359494       2.70292824       4.56560681  F       0.00000000       0.00000000       0.00000000
Pd       3.05359271       2.70292306       1.50000000  F       0.00000000       0.00000000       0.00000000
Pd       4.58039501       5.40584640       6.11658908  F       0.00000000       0.00000000       0.00000000
Pd       4.58040505      10.81168838       6.11658203  F       0.00000000       0.00000000       0.00000000
Pd       4.58038906       5.40584612       3.02679635  F       0.00000000       0.00000000       0.00000000
Pd       3.05359271       8.10876919       1.50000000  F       0.00000000       0.00000000       0.00000000
Pd       3.05921120       2.70731739       7.64991482  T       0.00000000       0.00000000       0.00000000
Pd       4.62272303       0.00253604      12.00929219  T       0.00000000       0.00000000       0.00000000
Pd       3.06987024       2.71349619      10.76076243  T       0.00000000       0.00000000       0.00000000
Pd       3.05359569       8.10876742       4.56559865  F       0.00000000       0.00000000       0.00000000
Pd       6.10718542       2.70292306       1.50000000  F       0.00000000       0.00000000       0.00000000
Pd       7.63398177       0.00000000       3.02679635  F       0.00000000       0.00000000       0.00000000
Pd       1.53436253       5.40277824      12.01293816  T       0.00000000       0.00000000       0.00000000
Pd       6.11321344       8.10993273       7.65085855  T       0.00000000       0.00000000       0.00000000
Pd       0.00000079       8.10876600       4.56559869  F       0.00000000       0.00000000       0.00000000
Pd       6.10718651       8.10875952       4.56558968  F       0.00000000       0.00000000       0.00000000
Pd       1.52680247       5.40584247       6.11658534  F       0.00000000       0.00000000       0.00000000
Pd       7.63398177       5.40584612       3.02679635  F       0.00000000       0.00000000       0.00000000
Pd       6.10718542       8.10876919       1.50000000  F       0.00000000       0.00000000       0.00000000
Pd      -0.00264908       8.11384962       7.65211391  T       0.00000000       0.00000000       0.00000000
Pd       7.67513749      10.81694544      12.02344027  T       0.00000000       0.00000000       0.00000000
Pd       6.12031649       2.71090896      10.77112842  T       0.00000000       0.00000000       0.00000000
Pd       1.51858255       5.41193029       9.13076785  T       0.00000000       0.00000000       0.00000000
Pd       7.64938224       0.00660174       9.15032425  T       0.00000000       0.00000000       0.00000000
Pd       6.10695917       2.70705384       7.65275345  T       0.00000000       0.00000000       0.00000000
Pd      12.23269903       8.11164017      10.76476979  T       0.00000000       0.00000000       0.00000000
Pd       7.63399583      10.81167532       6.11657540  F       0.00000000       0.00000000       0.00000000
Pd       6.10718592       2.70292523       4.56558724  F       0.00000000       0.00000000       0.00000000
Pd       1.52679635       5.40584612       3.02679635  F       0.00000000       0.00000000       0.00000000
Pd       0.00000000       2.70292306       1.50000000  F       0.00000000       0.00000000       0.00000000
O       10.61503904      -0.02517177      14.10737101  T       0.00000000       0.00000000       0.00000000
C       11.61007405       0.67708883      14.81807545  T       0.00000000       0.00000000       0.00000000
H       11.32690433       0.52755835      15.88293007  T       0.00000000       0.00000000       0.00000000
H       12.63326491       0.26351073      14.66332929  T       0.00000000       0.00000000       0.00000000
H       11.62984698       1.76429375      14.59903644  T       0.00000000       0.00000000       0.00000000
