133
Lattice="12.21437083684855 0.0 7e-16 1.7e-15 10.811692246786171 7e-16 0.0 0.0 30.687574482242482" Properties=species:S:1:pos:R:3:move_mask:L:1:momenta:R:3 adsorbate_info="_JSON {\"site\": {\"coordinates\": [12.214319765389389, 5.405834404337581, 12.11691438660336], \"connectivity\": 2, \"topology\": [48, 54], \"n_vector\": [0.07170226210575814, -0.06831033045205588, 0.9950841594370037], \"h_vector\": [-7.663987936583936e-06, -0.9999999999655802, -3.178481558916824e-06], \"site_formula\": {\"O\": 2}}, \"smiles\": \"ClOC\", \"mdf\": 2.0379079862481233, \"adsorbate_formula\": \"CH3O\"}" mace_E=-698.5742179370508 converged=T n_steps=70 d_min=1.9963829841358407 site_type=unknown dE_rel_meV=0 original_idx=390 rank=7 E_MACE=-698.6254366551855 pbc="T T T"
O        3.14646432       6.73382480      12.15631436  T       0.00000000       0.00000000       0.00000000
O        6.20509715       1.32295142      12.16041786  T       0.00000000       0.00000000       0.00000000
O        6.19736042       4.11960953      12.15185260  T       0.00000000       0.00000000       0.00000000
O        6.17235503       1.36225933       9.16424210  T       0.00000000       0.00000000       0.00000000
O        6.16994075       4.06229423       9.15494912  T       0.00000000       0.00000000       0.00000000
O        6.10718343       1.35539432       6.10801899  F       0.00000000       0.00000000       0.00000000
O        6.10718534       4.05045008       6.10801162  F       0.00000000       0.00000000       0.00000000
O        6.10718542       1.35146153       3.02679635  F       0.00000000       0.00000000       0.00000000
O        6.10718542       4.05438459       3.02679635  F       0.00000000       0.00000000       0.00000000
O        9.25850167       9.52355769      12.14935525  T       0.00000000       0.00000000       0.00000000
O        3.14894577       9.52697123      12.16437369  T       0.00000000       0.00000000       0.00000000
O        3.11796113       6.77204018       9.16580829  T       0.00000000       0.00000000       0.00000000
O        3.11706216       9.46903528       9.15625132  T       0.00000000       0.00000000       0.00000000
O        3.05359341       6.76124998       6.10801980  F       0.00000000       0.00000000       0.00000000
O        3.05359360       9.45629444       6.10802097  F       0.00000000       0.00000000       0.00000000
O        3.05359271       6.75730765       3.02679635  F       0.00000000       0.00000000       0.00000000
O        3.05359271       9.46023072       3.02679635  F       0.00000000       0.00000000       0.00000000
O        3.14741975       1.32722836      12.17236015  T       0.00000000       0.00000000       0.00000000
O        6.10718542       9.46023072       3.02679635  F       0.00000000       0.00000000       0.00000000
O        6.10718542       6.75730765       3.02679635  F       0.00000000       0.00000000       0.00000000
O        6.10718028       9.45628983       6.10801454  F       0.00000000       0.00000000       0.00000000
O        6.10718760       6.76124043       6.10802244  F       0.00000000       0.00000000       0.00000000
O        9.22656184       6.76615966       9.17646295  T       0.00000000       0.00000000       0.00000000
O        9.22999772       9.46534979       9.15556809  T       0.00000000       0.00000000       0.00000000
O        9.16078073       6.76123572       6.10801818  F       0.00000000       0.00000000       0.00000000
O        9.16078059       9.45627785       6.10801483  F       0.00000000       0.00000000       0.00000000
O        9.16077813       6.75730765       3.02679635  F       0.00000000       0.00000000       0.00000000
O        9.16077813       9.46023072       3.02679635  F       0.00000000       0.00000000       0.00000000
O        9.26084939       1.31674908      12.15114377  T       0.00000000       0.00000000       0.00000000
O        9.22695485       4.10208382      12.14184623  T       0.00000000       0.00000000       0.00000000
O        3.15014366       4.12015128      12.14918838  T       0.00000000       0.00000000       0.00000000
O        9.23051926       1.35940663       9.16036435  T       0.00000000       0.00000000       0.00000000
O        9.16077827       1.35539012       6.10801450  F       0.00000000       0.00000000       0.00000000
O        9.16078421       4.05045012       6.10800209  F       0.00000000       0.00000000       0.00000000
O        9.16077813       1.35146153       3.02679635  F       0.00000000       0.00000000       0.00000000
O        9.16077813       4.05438459       3.02679635  F       0.00000000       0.00000000       0.00000000
O        6.19861519       6.73513836      12.16948861  T       0.00000000       0.00000000       0.00000000
O        6.20060837       9.52856304      12.16076118  T       0.00000000       0.00000000       0.00000000
O        6.16898691       6.77205004       9.16606039  T       0.00000000       0.00000000       0.00000000
O        6.16997392       9.46775803       9.16012202  T       0.00000000       0.00000000       0.00000000
O        9.22410521       4.06332771       9.16804919  T       0.00000000       0.00000000       0.00000000
O        3.11750451       1.36288774       9.16512196  T       0.00000000       0.00000000       0.00000000
O        9.23550552       6.74166898      12.15757214  T       0.00000000       0.00000000       0.00000000
O       12.31326768       9.52186576      12.16245849  T       0.00000000       0.00000000       0.00000000
O        0.00000000       6.75730765       3.02679635  F       0.00000000       0.00000000       0.00000000
O        3.12073701       4.05958222       9.15757963  T       0.00000000       0.00000000       0.00000000
O        0.09533454       1.32018653      12.16315412  T       0.00000000       0.00000000       0.00000000
O        0.00000951       9.45630243       6.10801529  F       0.00000000       0.00000000       0.00000000
O       12.33187707       4.10596556      12.15444049  T       0.00000000       0.00000000       0.00000000
O        0.00000182       6.76124509       6.10800952  F       0.00000000       0.00000000       0.00000000
O        0.06785518       9.46441613       9.15937887  T       0.00000000       0.00000000       0.00000000
O        0.06556722       1.36512614       9.16689860  T       0.00000000       0.00000000       0.00000000
O        0.06702596       6.76668860       9.17868356  T       0.00000000       0.00000000       0.00000000
O       12.28063027       4.06230742       9.17349700  T       0.00000000       0.00000000       0.00000000
O       12.32065395       6.73283559      12.14666080  T       0.00000000       0.00000000       0.00000000
O        0.00000448       1.35539672       6.10801283  F       0.00000000       0.00000000       0.00000000
O        0.00000331       4.05045002       6.10801189  F       0.00000000       0.00000000       0.00000000
O        3.05359271       4.05438459       3.02679635  F       0.00000000       0.00000000       0.00000000
O        0.00000000       9.46023072       3.02679635  F       0.00000000       0.00000000       0.00000000
O        3.05359105       4.05044320       6.10802763  F       0.00000000       0.00000000       0.00000000
O        3.05359271       1.35146153       3.02679635  F       0.00000000       0.00000000       0.00000000
O        3.05359652       1.35540103       6.10801944  F       0.00000000       0.00000000       0.00000000
O        0.00000000       4.05438459       3.02679635  F       0.00000000       0.00000000       0.00000000
O        0.00000000       1.35146153       3.02679635  F       0.00000000       0.00000000       0.00000000
Pd       7.72249794       5.42465065      12.01088810  T       0.00000000       0.00000000       0.00000000
Pd      10.77321155       5.41615813      12.11083177  T       0.00000000       0.00000000       0.00000000
Pd       0.00000000       8.10876919       1.50000000  F       0.00000000       0.00000000       0.00000000
Pd       9.24104766       8.12251369      10.74902244  T       0.00000000       0.00000000       0.00000000
Pd       1.52679635       0.00000000       3.02679635  F       0.00000000       0.00000000       0.00000000
Pd       9.16077813       2.70292306       1.50000000  F       0.00000000       0.00000000       0.00000000
Pd      10.68757448       0.00000000       3.02679635  F       0.00000000       0.00000000       0.00000000
Pd      10.75341456       5.41496136       9.18742182  T       0.00000000       0.00000000       0.00000000
Pd       1.62348220       0.01900557      12.01839135  T       0.00000000       0.00000000       0.00000000
Pd       9.16077900       2.70292450       4.56559698  F       0.00000000       0.00000000       0.00000000
Pd      10.68756280      10.81168006       6.11657659  F       0.00000000       0.00000000       0.00000000
Pd       9.16077776       8.10875607       4.56559406  F       0.00000000       0.00000000       0.00000000
Pd       1.52678677       0.00000067       6.11658292  F       0.00000000       0.00000000       0.00000000
Pd       9.19903411       8.10870972       7.64680273  T       0.00000000       0.00000000       0.00000000
Pd       9.19784795       2.70911993       7.64657229  T       0.00000000       0.00000000       0.00000000
Pd      10.75710678       0.00788579       9.13023259  T       0.00000000       0.00000000       0.00000000
Pd       0.00000135       2.70292705       4.56560641  F       0.00000000       0.00000000       0.00000000
Pd       1.59141073      10.82181760       9.13170781  T       0.00000000       0.00000000       0.00000000
Pd       9.24109678       2.71196153      10.74581883  T       0.00000000       0.00000000       0.00000000
Pd       6.18406673       8.12677190      10.76092378  T       0.00000000       0.00000000       0.00000000
Pd      10.78679408      10.82544081      12.00356736  T       0.00000000       0.00000000       0.00000000
Pd       0.02925030       2.70878284       7.64856341  T       0.00000000       0.00000000       0.00000000
Pd      10.68757280       5.40584816       6.11657764  F       0.00000000       0.00000000       0.00000000
Pd       9.16077813       8.10876919       1.50000000  F       0.00000000       0.00000000       0.00000000
Pd      10.68757448       5.40584612       3.02679635  F       0.00000000       0.00000000       0.00000000
Pd      12.30357158       2.71339356      10.75856507  T       0.00000000       0.00000000       0.00000000
Pd       4.64489486       0.01001284       9.13211746  T       0.00000000       0.00000000       0.00000000
Pd       7.63397856       5.40585179       6.11657833  F       0.00000000       0.00000000       0.00000000
Pd       7.69623158       5.41713914       9.13706666  T       0.00000000       0.00000000       0.00000000
Pd       4.67693949       5.43006724      12.00917148  T       0.00000000       0.00000000       0.00000000
Pd       3.13554907       8.13144310      10.75696569  T       0.00000000       0.00000000       0.00000000
Pd       4.58038906       0.00000000       3.02679635  F       0.00000000       0.00000000       0.00000000
Pd       4.64489774       5.41688465       9.13305591  T       0.00000000       0.00000000       0.00000000
Pd       3.08612473       8.11229783       7.64618544  T       0.00000000       0.00000000       0.00000000
Pd       3.05359494       2.70292824       4.56560681  F       0.00000000       0.00000000       0.00000000
Pd       3.05359271       2.70292306       1.50000000  F       0.00000000       0.00000000       0.00000000
Pd       4.58039501       5.40584640       6.11658908  F       0.00000000       0.00000000       0.00000000
Pd       4.58040505      10.81168838       6.11658203  F       0.00000000       0.00000000       0.00000000
Pd       4.58038906       5.40584612       3.02679635  F       0.00000000       0.00000000       0.00000000
Pd       3.05359271       8.10876919       1.50000000  F       0.00000000       0.00000000       0.00000000
Pd       3.08785741       2.70622769       7.64619064  T       0.00000000       0.00000000       0.00000000
Pd       4.67488552       0.02201348      12.01935943  T       0.00000000       0.00000000       0.00000000
Pd       3.13765936       2.71387746      10.75650027  T       0.00000000       0.00000000       0.00000000
Pd       3.05359569       8.10876742       4.56559865  F       0.00000000       0.00000000       0.00000000
Pd       6.10718542       2.70292306       1.50000000  F       0.00000000       0.00000000       0.00000000
Pd       7.63398177       0.00000000       3.02679635  F       0.00000000       0.00000000       0.00000000
Pd       1.63168027       5.42232089      11.99121398  T       0.00000000       0.00000000       0.00000000
Pd       6.13748986       8.11353464       7.64736540  T       0.00000000       0.00000000       0.00000000
Pd       0.00000079       8.10876600       4.56559869  F       0.00000000       0.00000000       0.00000000
Pd       6.10718651       8.10875952       4.56558968  F       0.00000000       0.00000000       0.00000000
Pd       1.52680247       5.40584247       6.11658534  F       0.00000000       0.00000000       0.00000000
Pd       7.63398177       5.40584612       3.02679635  F       0.00000000       0.00000000       0.00000000
Pd       6.10718542       8.10876919       1.50000000  F       0.00000000       0.00000000       0.00000000
Pd       0.03038959       8.10835428       7.64865430  T       0.00000000       0.00000000       0.00000000
Pd       7.73131558      10.82874828      12.00625569  T       0.00000000       0.00000000       0.00000000
Pd       6.18554316       2.71695228      10.75369887  T       0.00000000       0.00000000       0.00000000
Pd       1.59567046       5.41437808       9.13798973  T       0.00000000       0.00000000       0.00000000
Pd       7.70132780       0.00781073       9.12978473  T       0.00000000       0.00000000       0.00000000
Pd       6.13881610       2.70614506       7.64566057  T       0.00000000       0.00000000       0.00000000
Pd      12.30242454       8.12778460      10.75552672  T       0.00000000       0.00000000       0.00000000
Pd       7.63399583      10.81167532       6.11657540  F       0.00000000       0.00000000       0.00000000
Pd       6.10718592       2.70292523       4.56558724  F       0.00000000       0.00000000       0.00000000
Pd       1.52679635       5.40584612       3.02679635  F       0.00000000       0.00000000       0.00000000
Pd       0.00000000       2.70292306       1.50000000  F       0.00000000       0.00000000       0.00000000
O       10.65491706       5.34471211      14.10204961  T       0.00000000       0.00000000       0.00000000
C       11.79523146       5.77192869      14.80826585  T       0.00000000       0.00000000       0.00000000
H       11.58150335       5.49333242      15.86086500  T       0.00000000       0.00000000       0.00000000
H       12.72880447       5.24724571      14.49872314  T       0.00000000       0.00000000       0.00000000
H       11.96226890       6.86549512      14.73792029  T       0.00000000       0.00000000       0.00000000
