133
Lattice="12.21437083684855 0.0 7e-16 1.7e-15 10.811692246786171 7e-16 0.0 0.0 30.687574482242482" Properties=species:S:1:pos:R:3:move_mask:L:1:momenta:R:3 adsorbate_info="_JSON {\"site\": {\"coordinates\": [5.3438019441066125, 6.050403274544765, 12.046259301073171], \"connectivity\": 2, \"topology\": [36, 93], \"n_vector\": [-0.07998293009085, -0.05396928034873406, 0.9953341387055515], \"h_vector\": [-0.7621846864923099, -0.6435096583331483, -0.07049697375472284], \"site_formula\": {\"O\": 1, \"Pd\": 1}}, \"smiles\": \"ClOC\", \"mdf\": 1.9576083540942908, \"adsorbate_formula\": \"CH3O\"}" mace_E=-698.5920097147113 converged=T n_steps=35 d_min=1.995394045544157 site_type=unknown dE_rel_meV=0 original_idx=172 rank=4 E_MACE=-698.6259081624904 pbc="T T T"
O        3.07665040       6.74311631      12.15689069  T       0.00000000       0.00000000       0.00000000
O        6.13099348       1.32806914      12.16781954  T       0.00000000       0.00000000       0.00000000
O        6.16975072       4.10388938      12.15550036  T       0.00000000       0.00000000       0.00000000
O        6.11740209       1.36385512       9.16418782  T       0.00000000       0.00000000       0.00000000
O        6.13199146       4.06296091       9.17076039  T       0.00000000       0.00000000       0.00000000
O        6.10718343       1.35539432       6.10801899  F       0.00000000       0.00000000       0.00000000
O        6.10718534       4.05045008       6.10801162  F       0.00000000       0.00000000       0.00000000
O        6.10718542       1.35146153       3.02679635  F       0.00000000       0.00000000       0.00000000
O        6.10718542       4.05438459       3.02679635  F       0.00000000       0.00000000       0.00000000
O        9.18489846       9.53636584      12.15535829  T       0.00000000       0.00000000       0.00000000
O        3.07328179       9.53611758      12.14893901  T       0.00000000       0.00000000       0.00000000
O        3.07801262       6.76962126       9.17951160  T       0.00000000       0.00000000       0.00000000
O        3.06023952       9.47259683       9.15618922  T       0.00000000       0.00000000       0.00000000
O        3.05359341       6.76124998       6.10801980  F       0.00000000       0.00000000       0.00000000
O        3.05359360       9.45629444       6.10802097  F       0.00000000       0.00000000       0.00000000
O        3.05359271       6.75730765       3.02679635  F       0.00000000       0.00000000       0.00000000
O        3.05359271       9.46023072       3.02679635  F       0.00000000       0.00000000       0.00000000
O        3.07926073       1.33335801      12.17128843  T       0.00000000       0.00000000       0.00000000
O        6.10718542       9.46023072       3.02679635  F       0.00000000       0.00000000       0.00000000
O        6.10718542       6.75730765       3.02679635  F       0.00000000       0.00000000       0.00000000
O        6.10718028       9.45628983       6.10801454  F       0.00000000       0.00000000       0.00000000
O        6.10718760       6.76124043       6.10802244  F       0.00000000       0.00000000       0.00000000
O        9.18433183       6.77550238       9.16882377  T       0.00000000       0.00000000       0.00000000
O        9.17079436       9.47121421       9.15758955  T       0.00000000       0.00000000       0.00000000
O        9.16078073       6.76123572       6.10801818  F       0.00000000       0.00000000       0.00000000
O        9.16078059       9.45627785       6.10801483  F       0.00000000       0.00000000       0.00000000
O        9.16077813       6.75730765       3.02679635  F       0.00000000       0.00000000       0.00000000
O        9.16077813       9.46023072       3.02679635  F       0.00000000       0.00000000       0.00000000
O        9.18233224       1.33084558      12.16537364  T       0.00000000       0.00000000       0.00000000
O        9.20509889       4.12636955      12.15597557  T       0.00000000       0.00000000       0.00000000
O        3.08071190       4.11824988      12.15346154  T       0.00000000       0.00000000       0.00000000
O        9.17034671       1.36790952       9.16645183  T       0.00000000       0.00000000       0.00000000
O        9.16077827       1.35539012       6.10801450  F       0.00000000       0.00000000       0.00000000
O        9.16078421       4.05045012       6.10800209  F       0.00000000       0.00000000       0.00000000
O        9.16077813       1.35146153       3.02679635  F       0.00000000       0.00000000       0.00000000
O        9.16077813       4.05438459       3.02679635  F       0.00000000       0.00000000       0.00000000
O        6.17013200       6.74588003      12.14740842  T       0.00000000       0.00000000       0.00000000
O        6.12867539       9.53248395      12.14666511  T       0.00000000       0.00000000       0.00000000
O        6.12833151       6.77043207       9.17822774  T       0.00000000       0.00000000       0.00000000
O        6.11306663       9.47309779       9.15513103  T       0.00000000       0.00000000       0.00000000
O        9.18690377       4.06592326       9.15771472  T       0.00000000       0.00000000       0.00000000
O        3.06047838       1.36709739       9.16615425  T       0.00000000       0.00000000       0.00000000
O        9.19973597       6.73807222      12.16539236  T       0.00000000       0.00000000       0.00000000
O       12.23837559       9.53707401      12.15160745  T       0.00000000       0.00000000       0.00000000
O        0.00000000       6.75730765       3.02679635  F       0.00000000       0.00000000       0.00000000
O        3.07434390       4.06148291       9.17065063  T       0.00000000       0.00000000       0.00000000
O        0.02290319       1.33324914      12.17265599  T       0.00000000       0.00000000       0.00000000
O        0.00000951       9.45630243       6.10801529  F       0.00000000       0.00000000       0.00000000
O       12.25320840       4.12819945      12.16019670  T       0.00000000       0.00000000       0.00000000
O        0.00000182       6.76124509       6.10800952  F       0.00000000       0.00000000       0.00000000
O        0.00859271       9.47052808       9.15593499  T       0.00000000       0.00000000       0.00000000
O        0.00713701       1.36824804       9.16949529  T       0.00000000       0.00000000       0.00000000
O        0.02459629       6.77359340       9.16795325  T       0.00000000       0.00000000       0.00000000
O       12.23535661       4.06338914       9.16103026  T       0.00000000       0.00000000       0.00000000
O       12.25740169       6.73994551      12.16284243  T       0.00000000       0.00000000       0.00000000
O        0.00000448       1.35539672       6.10801283  F       0.00000000       0.00000000       0.00000000
O        0.00000331       4.05045002       6.10801189  F       0.00000000       0.00000000       0.00000000
O        3.05359271       4.05438459       3.02679635  F       0.00000000       0.00000000       0.00000000
O        0.00000000       9.46023072       3.02679635  F       0.00000000       0.00000000       0.00000000
O        3.05359105       4.05044320       6.10802763  F       0.00000000       0.00000000       0.00000000
O        3.05359271       1.35146153       3.02679635  F       0.00000000       0.00000000       0.00000000
O        3.05359652       1.35540103       6.10801944  F       0.00000000       0.00000000       0.00000000
O        0.00000000       4.05438459       3.02679635  F       0.00000000       0.00000000       0.00000000
O        0.00000000       1.35146153       3.02679635  F       0.00000000       0.00000000       0.00000000
Pd       7.67824139       5.42740614      12.00973529  T       0.00000000       0.00000000       0.00000000
Pd      10.72878287       5.43626202      12.01571482  T       0.00000000       0.00000000       0.00000000
Pd       0.00000000       8.10876919       1.50000000  F       0.00000000       0.00000000       0.00000000
Pd       9.18798804       8.13211698      10.76012481  T       0.00000000       0.00000000       0.00000000
Pd       1.52679635       0.00000000       3.02679635  F       0.00000000       0.00000000       0.00000000
Pd       9.16077813       2.70292306       1.50000000  F       0.00000000       0.00000000       0.00000000
Pd      10.68757448       0.00000000       3.02679635  F       0.00000000       0.00000000       0.00000000
Pd      10.71219231       5.42122541       9.13596827  T       0.00000000       0.00000000       0.00000000
Pd       1.54981362       0.03088924      12.01144420  T       0.00000000       0.00000000       0.00000000
Pd       9.16077900       2.70292450       4.56559698  F       0.00000000       0.00000000       0.00000000
Pd      10.68756280      10.81168006       6.11657659  F       0.00000000       0.00000000       0.00000000
Pd       9.16077776       8.10875607       4.56559406  F       0.00000000       0.00000000       0.00000000
Pd       1.52678677       0.00000067       6.11658292  F       0.00000000       0.00000000       0.00000000
Pd       9.17219915       8.11459657       7.64774090  T       0.00000000       0.00000000       0.00000000
Pd       9.17183064       2.70897979       7.64718105  T       0.00000000       0.00000000       0.00000000
Pd      10.69547603       0.01373608       9.13105658  T       0.00000000       0.00000000       0.00000000
Pd       0.00000135       2.70292705       4.56560641  F       0.00000000       0.00000000       0.00000000
Pd       1.53249046      10.82655320       9.13159966  T       0.00000000       0.00000000       0.00000000
Pd       9.18935858       2.72357780      10.75842094  T       0.00000000       0.00000000       0.00000000
Pd       6.13006515       8.13237692      10.75016239  T       0.00000000       0.00000000       0.00000000
Pd      10.71066366      10.84095470      12.01391065  T       0.00000000       0.00000000       0.00000000
Pd       0.00435440       2.70770927       7.64894499  T       0.00000000       0.00000000       0.00000000
Pd      10.68757280       5.40584816       6.11657764  F       0.00000000       0.00000000       0.00000000
Pd       9.16077813       8.10876919       1.50000000  F       0.00000000       0.00000000       0.00000000
Pd      10.68757448       5.40584612       3.02679635  F       0.00000000       0.00000000       0.00000000
Pd      12.23403730       2.72325502      10.76392019  T       0.00000000       0.00000000       0.00000000
Pd       4.58672144       0.01395745       9.12863859  T       0.00000000       0.00000000       0.00000000
Pd       7.63397856       5.40585179       6.11657833  F       0.00000000       0.00000000       0.00000000
Pd       7.66001151       5.41918422       9.13867221  T       0.00000000       0.00000000       0.00000000
Pd       4.63137759       5.43046977      12.11065169  T       0.00000000       0.00000000       0.00000000
Pd       3.07579389       8.13143955      10.75317158  T       0.00000000       0.00000000       0.00000000
Pd       4.58038906       0.00000000       3.02679635  F       0.00000000       0.00000000       0.00000000
Pd       4.60412767       5.41521701       9.18553264  T       0.00000000       0.00000000       0.00000000
Pd       3.06576295       8.11129935       7.64877189  T       0.00000000       0.00000000       0.00000000
Pd       3.05359494       2.70292824       4.56560681  F       0.00000000       0.00000000       0.00000000
Pd       3.05359271       2.70292306       1.50000000  F       0.00000000       0.00000000       0.00000000
Pd       4.58039501       5.40584640       6.11658908  F       0.00000000       0.00000000       0.00000000
Pd       4.58040505      10.81168838       6.11658203  F       0.00000000       0.00000000       0.00000000
Pd       4.58038906       5.40584612       3.02679635  F       0.00000000       0.00000000       0.00000000
Pd       3.05359271       8.10876919       1.50000000  F       0.00000000       0.00000000       0.00000000
Pd       3.06236738       2.71117660       7.64794342  T       0.00000000       0.00000000       0.00000000
Pd       4.60333816       0.02571518      12.00564750  T       0.00000000       0.00000000       0.00000000
Pd       3.07635072       2.71620557      10.75859104  T       0.00000000       0.00000000       0.00000000
Pd       3.05359569       8.10876742       4.56559865  F       0.00000000       0.00000000       0.00000000
Pd       6.10718542       2.70292306       1.50000000  F       0.00000000       0.00000000       0.00000000
Pd       7.63398177       0.00000000       3.02679635  F       0.00000000       0.00000000       0.00000000
Pd       1.56124810       5.43422878      12.00455808  T       0.00000000       0.00000000       0.00000000
Pd       6.10819705       8.10958101       7.64806782  T       0.00000000       0.00000000       0.00000000
Pd       0.00000079       8.10876600       4.56559869  F       0.00000000       0.00000000       0.00000000
Pd       6.10718651       8.10875952       4.56558968  F       0.00000000       0.00000000       0.00000000
Pd       1.52680247       5.40584247       6.11658534  F       0.00000000       0.00000000       0.00000000
Pd       7.63398177       5.40584612       3.02679635  F       0.00000000       0.00000000       0.00000000
Pd       6.10718542       8.10876919       1.50000000  F       0.00000000       0.00000000       0.00000000
Pd       0.00771667       8.11318572       7.64675076  T       0.00000000       0.00000000       0.00000000
Pd       7.65646574      10.83657330      12.00891660  T       0.00000000       0.00000000       0.00000000
Pd       6.13859539       2.71496156      10.75500625  T       0.00000000       0.00000000       0.00000000
Pd       1.54927296       5.41706100       9.13833460  T       0.00000000       0.00000000       0.00000000
Pd       7.64316065       0.01212668       9.13074568  T       0.00000000       0.00000000       0.00000000
Pd       6.11136052       2.71036263       7.64835403  T       0.00000000       0.00000000       0.00000000
Pd      12.24085650       8.13244453      10.75671134  T       0.00000000       0.00000000       0.00000000
Pd       7.63399583      10.81167532       6.11657540  F       0.00000000       0.00000000       0.00000000
Pd       6.10718592       2.70292523       4.56558724  F       0.00000000       0.00000000       0.00000000
Pd       1.52679635       5.40584612       3.02679635  F       0.00000000       0.00000000       0.00000000
Pd       0.00000000       2.70292306       1.50000000  F       0.00000000       0.00000000       0.00000000
O        4.79903655       5.52954777      14.09745534  T       0.00000000       0.00000000       0.00000000
C        4.05871440       4.58712797      14.83923862  T       0.00000000       0.00000000       0.00000000
H        4.40028394       4.75549696      15.88290005  T       0.00000000       0.00000000       0.00000000
H        2.96138263       4.75479544      14.79627585  T       0.00000000       0.00000000       0.00000000
H        4.26761536       3.53551896      14.56004895  T       0.00000000       0.00000000       0.00000000
