133
Lattice="12.21437083684855 0.0 7e-16 1.7e-15 10.811692246786171 7e-16 0.0 0.0 30.687574482242482" Properties=species:S:1:pos:R:3:move_mask:L:1:momenta:R:3 adsorbate_info="_JSON {\"site\": {\"coordinates\": [11.705430426364812, 10.811679789930112, 12.069818538767807], \"connectivity\": 3, \"topology\": [43, 46, 84], \"n_vector\": [0.026430887332390737, 0.0586512596612682, 0.9979285735637441], \"h_vector\": [-0.7621752302207541, -0.643519964068144, -0.07050513657652871], \"site_formula\": {\"O\": 2, \"Pd\": 1}}, \"smiles\": \"ClOC\", \"mdf\": 2.084195858360101, \"adsorbate_formula\": \"CH3O\"}" mace_E=-698.5650310074161 converged=T n_steps=43 d_min=1.9947388734360167 site_type=unknown dE_rel_meV=0 original_idx=382 rank=200 E_MACE=-698.5860387473429 pbc="T T T"
O        3.10265768       6.70970539      12.16505838  T       0.00000000       0.00000000       0.00000000
O        6.16721936       1.30242329      12.15838145  T       0.00000000       0.00000000       0.00000000
O        6.15726764       4.10074626      12.16434913  T       0.00000000       0.00000000       0.00000000
O        6.14624822       1.35422888       9.16702590  T       0.00000000       0.00000000       0.00000000
O        6.14359231       4.05134278       9.16750194  T       0.00000000       0.00000000       0.00000000
O        6.10718343       1.35539432       6.10801899  F       0.00000000       0.00000000       0.00000000
O        6.10718534       4.05045008       6.10801162  F       0.00000000       0.00000000       0.00000000
O        6.10718542       1.35146153       3.02679635  F       0.00000000       0.00000000       0.00000000
O        6.10718542       4.05438459       3.02679635  F       0.00000000       0.00000000       0.00000000
O        9.21912289       9.49897498      12.19978356  T       0.00000000       0.00000000       0.00000000
O        3.11593046       9.50460593      12.15877391  T       0.00000000       0.00000000       0.00000000
O        3.08692007       6.75814492       9.16424361  T       0.00000000       0.00000000       0.00000000
O        3.09385035       9.45510677       9.16607326  T       0.00000000       0.00000000       0.00000000
O        3.05359341       6.76124998       6.10801980  F       0.00000000       0.00000000       0.00000000
O        3.05359360       9.45629444       6.10802097  F       0.00000000       0.00000000       0.00000000
O        3.05359271       6.75730765       3.02679635  F       0.00000000       0.00000000       0.00000000
O        3.05359271       9.46023072       3.02679635  F       0.00000000       0.00000000       0.00000000
O        3.11591327       1.30660367      12.16017996  T       0.00000000       0.00000000       0.00000000
O        6.10718542       9.46023072       3.02679635  F       0.00000000       0.00000000       0.00000000
O        6.10718542       6.75730765       3.02679635  F       0.00000000       0.00000000       0.00000000
O        6.10718028       9.45628983       6.10801454  F       0.00000000       0.00000000       0.00000000
O        6.10718760       6.76124043       6.10802244  F       0.00000000       0.00000000       0.00000000
O        9.19497690       6.76643457       9.18300931  T       0.00000000       0.00000000       0.00000000
O        9.19996374       9.45650288       9.19409959  T       0.00000000       0.00000000       0.00000000
O        9.16078073       6.76123572       6.10801818  F       0.00000000       0.00000000       0.00000000
O        9.16078059       9.45627785       6.10801483  F       0.00000000       0.00000000       0.00000000
O        9.16077813       6.75730765       3.02679635  F       0.00000000       0.00000000       0.00000000
O        9.16077813       9.46023072       3.02679635  F       0.00000000       0.00000000       0.00000000
O        9.22107599       1.31008437      12.19933102  T       0.00000000       0.00000000       0.00000000
O        9.21021321       4.09861754      12.18437876  T       0.00000000       0.00000000       0.00000000
O        3.10276657       4.10075494      12.16617425  T       0.00000000       0.00000000       0.00000000
O        9.20016337       1.35480030       9.19415734  T       0.00000000       0.00000000       0.00000000
O        9.16077827       1.35539012       6.10801450  F       0.00000000       0.00000000       0.00000000
O        9.16078421       4.05045012       6.10800209  F       0.00000000       0.00000000       0.00000000
O        9.16077813       1.35146153       3.02679635  F       0.00000000       0.00000000       0.00000000
O        9.16077813       4.05438459       3.02679635  F       0.00000000       0.00000000       0.00000000
O        6.15736550       6.70959122      12.16310589  T       0.00000000       0.00000000       0.00000000
O        6.16685884       9.50823933      12.15783026  T       0.00000000       0.00000000       0.00000000
O        6.14361328       6.75961162       9.16693017  T       0.00000000       0.00000000       0.00000000
O        6.14632514       9.45714500       9.16686221  T       0.00000000       0.00000000       0.00000000
O        9.19475046       4.04425452       9.18376474  T       0.00000000       0.00000000       0.00000000
O        3.09379061       1.35600605       9.16632050  T       0.00000000       0.00000000       0.00000000
O        9.21005708       6.71126979      12.18281625  T       0.00000000       0.00000000       0.00000000
O       12.31017261       9.48242996      12.15435421  T       0.00000000       0.00000000       0.00000000
O        0.00000000       6.75730765       3.02679635  F       0.00000000       0.00000000       0.00000000
O        3.08707951       4.05248887       9.16489193  T       0.00000000       0.00000000       0.00000000
O        0.09406556       1.32720124      12.15735410  T       0.00000000       0.00000000       0.00000000
O        0.00000951       9.45630243       6.10801529  F       0.00000000       0.00000000       0.00000000
O       12.26332931       4.10099375      12.16228171  T       0.00000000       0.00000000       0.00000000
O        0.00000182       6.76124509       6.10800952  F       0.00000000       0.00000000       0.00000000
O        0.04152920       9.45755565       9.18113876  T       0.00000000       0.00000000       0.00000000
O        0.04146143       1.35352094       9.18185522  T       0.00000000       0.00000000       0.00000000
O        0.02850070       6.75695197       9.16451141  T       0.00000000       0.00000000       0.00000000
O       12.24295658       4.05309368       9.16582696  T       0.00000000       0.00000000       0.00000000
O       12.26338247       6.70896850      12.16032368  T       0.00000000       0.00000000       0.00000000
O        0.00000448       1.35539672       6.10801283  F       0.00000000       0.00000000       0.00000000
O        0.00000331       4.05045002       6.10801189  F       0.00000000       0.00000000       0.00000000
O        3.05359271       4.05438459       3.02679635  F       0.00000000       0.00000000       0.00000000
O        0.00000000       9.46023072       3.02679635  F       0.00000000       0.00000000       0.00000000
O        3.05359105       4.05044320       6.10802763  F       0.00000000       0.00000000       0.00000000
O        3.05359271       1.35146153       3.02679635  F       0.00000000       0.00000000       0.00000000
O        3.05359652       1.35540103       6.10801944  F       0.00000000       0.00000000       0.00000000
O        0.00000000       4.05438459       3.02679635  F       0.00000000       0.00000000       0.00000000
O        0.00000000       1.35146153       3.02679635  F       0.00000000       0.00000000       0.00000000
Pd       7.68534361       5.40502218      12.02409881  T       0.00000000       0.00000000       0.00000000
Pd      10.73638554       5.40501061      12.02673412  T       0.00000000       0.00000000       0.00000000
Pd       0.00000000       8.10876919       1.50000000  F       0.00000000       0.00000000       0.00000000
Pd       9.21069005       8.11115209      10.78361753  T       0.00000000       0.00000000       0.00000000
Pd       1.52679635       0.00000000       3.02679635  F       0.00000000       0.00000000       0.00000000
Pd       9.16077813       2.70292306       1.50000000  F       0.00000000       0.00000000       0.00000000
Pd      10.68757448       0.00000000       3.02679635  F       0.00000000       0.00000000       0.00000000
Pd      10.71660890       5.40512097       9.15147608  T       0.00000000       0.00000000       0.00000000
Pd       1.59522542      -0.00023502      12.01769711  T       0.00000000       0.00000000       0.00000000
Pd       9.16077900       2.70292450       4.56559698  F       0.00000000       0.00000000       0.00000000
Pd      10.68756280      10.81168006       6.11657659  F       0.00000000       0.00000000       0.00000000
Pd       9.16077776       8.10875607       4.56559406  F       0.00000000       0.00000000       0.00000000
Pd       1.52678677       0.00000067       6.11658292  F       0.00000000       0.00000000       0.00000000
Pd       9.18383075       8.11236159       7.65816980  T       0.00000000       0.00000000       0.00000000
Pd       9.18383590       2.69905364       7.65832061  T       0.00000000       0.00000000       0.00000000
Pd      10.72801127      -0.00026913       9.19936872  T       0.00000000       0.00000000       0.00000000
Pd       0.00000135       2.70292705       4.56560641  F       0.00000000       0.00000000       0.00000000
Pd       1.57044122      10.81141365       9.14726678  T       0.00000000       0.00000000       0.00000000
Pd       9.21131350       2.69953695      10.78429934  T       0.00000000       0.00000000       0.00000000
Pd       6.15332778       8.10690120      10.76028607  T       0.00000000       0.00000000       0.00000000
Pd      10.77196844      10.80899243      12.14419040  T       0.00000000       0.00000000       0.00000000
Pd       0.01255020       2.69881393       7.65111580  T       0.00000000       0.00000000       0.00000000
Pd      10.68757280       5.40584816       6.11657764  F       0.00000000       0.00000000       0.00000000
Pd       9.16077813       8.10876919       1.50000000  F       0.00000000       0.00000000       0.00000000
Pd      10.68757448       5.40584612       3.02679635  F       0.00000000       0.00000000       0.00000000
Pd      12.26575911       2.70755655      10.75719208  T       0.00000000       0.00000000       0.00000000
Pd       4.62015029      -0.00022740       9.13511448  T       0.00000000       0.00000000       0.00000000
Pd       7.63397856       5.40585179       6.11657833  F       0.00000000       0.00000000       0.00000000
Pd       7.67107620       5.40544152       9.14927449  T       0.00000000       0.00000000       0.00000000
Pd       4.62951361       5.40520239      12.01841005  T       0.00000000       0.00000000       0.00000000
Pd       3.09984718       8.10499367      10.75975924  T       0.00000000       0.00000000       0.00000000
Pd       4.58038906       0.00000000       3.02679635  F       0.00000000       0.00000000       0.00000000
Pd       4.61569384       5.40541155       9.13677953  T       0.00000000       0.00000000       0.00000000
Pd       3.07093709       8.10827111       7.64863624  T       0.00000000       0.00000000       0.00000000
Pd       3.05359494       2.70292824       4.56560681  F       0.00000000       0.00000000       0.00000000
Pd       3.05359271       2.70292306       1.50000000  F       0.00000000       0.00000000       0.00000000
Pd       4.58039501       5.40584640       6.11658908  F       0.00000000       0.00000000       0.00000000
Pd       4.58040505      10.81168838       6.11658203  F       0.00000000       0.00000000       0.00000000
Pd       4.58038906       5.40584612       3.02679635  F       0.00000000       0.00000000       0.00000000
Pd       3.05359271       8.10876919       1.50000000  F       0.00000000       0.00000000       0.00000000
Pd       3.07091113       2.70305781       7.64884187  T       0.00000000       0.00000000       0.00000000
Pd       4.64060282      -0.00029307      12.00527232  T       0.00000000       0.00000000       0.00000000
Pd       3.09997190       2.70566604      10.76061714  T       0.00000000       0.00000000       0.00000000
Pd       3.05359569       8.10876742       4.56559865  F       0.00000000       0.00000000       0.00000000
Pd       6.10718542       2.70292306       1.50000000  F       0.00000000       0.00000000       0.00000000
Pd       7.63398177       0.00000000       3.02679635  F       0.00000000       0.00000000       0.00000000
Pd       1.57573054       5.40505610      12.01764520  T       0.00000000       0.00000000       0.00000000
Pd       6.12819094       8.10866363       7.64938595  T       0.00000000       0.00000000       0.00000000
Pd       0.00000079       8.10876600       4.56559869  F       0.00000000       0.00000000       0.00000000
Pd       6.10718651       8.10875952       4.56558968  F       0.00000000       0.00000000       0.00000000
Pd       1.52680247       5.40584247       6.11658534  F       0.00000000       0.00000000       0.00000000
Pd       7.63398177       5.40584612       3.02679635  F       0.00000000       0.00000000       0.00000000
Pd       6.10718542       8.10876919       1.50000000  F       0.00000000       0.00000000       0.00000000
Pd       0.01250983       8.11241641       7.65061587  T       0.00000000       0.00000000       0.00000000
Pd       7.69581310      10.81086935      12.02645298  T       0.00000000       0.00000000       0.00000000
Pd       6.15315526       2.70391027      10.76098183  T       0.00000000       0.00000000       0.00000000
Pd       1.55842305       5.40512813       9.13619845  T       0.00000000       0.00000000       0.00000000
Pd       7.67323411      -0.00011270       9.15381831  T       0.00000000       0.00000000       0.00000000
Pd       6.12816514       2.70283076       7.64955342  T       0.00000000       0.00000000       0.00000000
Pd      12.26612034       8.10231656      10.75519233  T       0.00000000       0.00000000       0.00000000
Pd       7.63399583      10.81167532       6.11657540  F       0.00000000       0.00000000       0.00000000
Pd       6.10718592       2.70292523       4.56558724  F       0.00000000       0.00000000       0.00000000
Pd       1.52679635       5.40584612       3.02679635  F       0.00000000       0.00000000       0.00000000
Pd       0.00000000       2.70292306       1.50000000  F       0.00000000       0.00000000       0.00000000
O       11.07658633      10.79351876      14.12137810  T       0.00000000       0.00000000       0.00000000
C        9.95599355      10.85711436      14.96975327  T       0.00000000       0.00000000       0.00000000
H       10.40528577      10.84982694      15.98941039  T       0.00000000       0.00000000       0.00000000
H        9.36981722      11.79317229      14.85642750  T       0.00000000       0.00000000       0.00000000
H        9.28686747       9.97493061      14.88152606  T       0.00000000       0.00000000       0.00000000
