133
Lattice="12.21437083684855 0.0 7e-16 1.7e-15 10.811692246786171 7e-16 0.0 0.0 30.687574482242482" Properties=species:S:1:pos:R:3:move_mask:L:1:momenta:R:3 adsorbate_info="_JSON {\"site\": {\"coordinates\": [3.053567557419213, 8.108733483669354, 12.116894985083194], \"connectivity\": 2, \"topology\": [0, 10], \"n_vector\": [-0.06674366528389966, 0.00431323128612188, 0.997760832654972], \"h_vector\": [1.3752049614882272e-05, 0.9999999998391675, 1.1512867985557533e-05], \"site_formula\": {\"O\": 2}}, \"smiles\": \"ClOC\", \"mdf\": 2.0410660733779076, \"adsorbate_formula\": \"CH3O\"}" mace_E=-698.3319161998144 converged=T n_steps=101 d_min=2.7046649226562933 site_type=unknown dE_rel_meV=0 original_idx=96 rank=401 E_MACE=-697.4951154712659 pbc="T T T"
O        3.06515811       6.72066540      12.18566723  T       0.00000000       0.00000000       0.00000000
O        6.11170659       1.28699797      12.15239154  T       0.00000000       0.00000000       0.00000000
O        6.10321794       4.08975936      12.15249957  T       0.00000000       0.00000000       0.00000000
O        6.10831082       1.34538113       9.15808215  T       0.00000000       0.00000000       0.00000000
O        6.10424294       4.04559504       9.16451072  T       0.00000000       0.00000000       0.00000000
O        6.10718343       1.35539432       6.10801899  F       0.00000000       0.00000000       0.00000000
O        6.10718534       4.05045008       6.10801162  F       0.00000000       0.00000000       0.00000000
O        6.10718542       1.35146153       3.02679635  F       0.00000000       0.00000000       0.00000000
O        6.10718542       4.05438459       3.02679635  F       0.00000000       0.00000000       0.00000000
O        9.17083346       9.49223553      12.16711103  T       0.00000000       0.00000000       0.00000000
O        3.05578227       9.49635320      12.16746751  T       0.00000000       0.00000000       0.00000000
O        3.05393079       6.75325472       9.16736586  T       0.00000000       0.00000000       0.00000000
O        3.05732048       9.45096530       9.16575060  T       0.00000000       0.00000000       0.00000000
O        3.05359341       6.76124998       6.10801980  F       0.00000000       0.00000000       0.00000000
O        3.05359360       9.45629444       6.10802097  F       0.00000000       0.00000000       0.00000000
O        3.05359271       6.75730765       3.02679635  F       0.00000000       0.00000000       0.00000000
O        3.05359271       9.46023072       3.02679635  F       0.00000000       0.00000000       0.00000000
O        3.06346425       1.30202159      12.16945808  T       0.00000000       0.00000000       0.00000000
O        6.10718542       9.46023072       3.02679635  F       0.00000000       0.00000000       0.00000000
O        6.10718542       6.75730765       3.02679635  F       0.00000000       0.00000000       0.00000000
O        6.10718028       9.45628983       6.10801454  F       0.00000000       0.00000000       0.00000000
O        6.10718760       6.76124043       6.10802244  F       0.00000000       0.00000000       0.00000000
O        9.16189324       6.75552039       9.16485053  T       0.00000000       0.00000000       0.00000000
O        9.16806528       9.45174212       9.16704287  T       0.00000000       0.00000000       0.00000000
O        9.16078073       6.76123572       6.10801818  F       0.00000000       0.00000000       0.00000000
O        9.16078059       9.45627785       6.10801483  F       0.00000000       0.00000000       0.00000000
O        9.16077813       6.75730765       3.02679635  F       0.00000000       0.00000000       0.00000000
O        9.16077813       9.46023072       3.02679635  F       0.00000000       0.00000000       0.00000000
O        9.16753241       1.28592001      12.15302889  T       0.00000000       0.00000000       0.00000000
O        9.16530186       4.09056525      12.15506048  T       0.00000000       0.00000000       0.00000000
O        3.06463234       4.07986402      12.18758890  T       0.00000000       0.00000000       0.00000000
O        9.16564548       1.34786385       9.16152112  T       0.00000000       0.00000000       0.00000000
O        9.16077827       1.35539012       6.10801450  F       0.00000000       0.00000000       0.00000000
O        9.16078421       4.05045012       6.10800209  F       0.00000000       0.00000000       0.00000000
O        9.16077813       1.35146153       3.02679635  F       0.00000000       0.00000000       0.00000000
O        9.16077813       4.05438459       3.02679635  F       0.00000000       0.00000000       0.00000000
O        6.10958227       6.69953392      12.15062657  T       0.00000000       0.00000000       0.00000000
O        6.10704400       9.49219322      12.15642442  T       0.00000000       0.00000000       0.00000000
O        6.10409284       6.75307807       9.15828364  T       0.00000000       0.00000000       0.00000000
O        6.10840101       9.45256131       9.15979735  T       0.00000000       0.00000000       0.00000000
O        9.16582243       4.04482692       9.16767008  T       0.00000000       0.00000000       0.00000000
O        3.05906622       1.35127567       9.16803742  T       0.00000000       0.00000000       0.00000000
O        9.15840398       6.69713863      12.15499742  T       0.00000000       0.00000000       0.00000000
O       12.22764147       9.49312850      12.16762202  T       0.00000000       0.00000000       0.00000000
O        0.00000000       6.75730765       3.02679635  F       0.00000000       0.00000000       0.00000000
O        3.05162241       4.04910357       9.17347568  T       0.00000000       0.00000000       0.00000000
O        0.00516872       1.30035891      12.15839615  T       0.00000000       0.00000000       0.00000000
O        0.00000951       9.45630243       6.10801529  F       0.00000000       0.00000000       0.00000000
O       12.20766704       4.08218192      12.17657842  T       0.00000000       0.00000000       0.00000000
O        0.00000182       6.76124509       6.10800952  F       0.00000000       0.00000000       0.00000000
O        0.00806614       9.45206794       9.16600256  T       0.00000000       0.00000000       0.00000000
O        0.00765637       1.35041623       9.16575725  T       0.00000000       0.00000000       0.00000000
O        0.00490991       6.75356843       9.16512574  T       0.00000000       0.00000000       0.00000000
O       12.21971020       4.05140040       9.17069083  T       0.00000000       0.00000000       0.00000000
O       12.20761994       6.72298123      12.18316657  T       0.00000000       0.00000000       0.00000000
O        0.00000448       1.35539672       6.10801283  F       0.00000000       0.00000000       0.00000000
O        0.00000331       4.05045002       6.10801189  F       0.00000000       0.00000000       0.00000000
O        3.05359271       4.05438459       3.02679635  F       0.00000000       0.00000000       0.00000000
O        0.00000000       9.46023072       3.02679635  F       0.00000000       0.00000000       0.00000000
O        3.05359105       4.05044320       6.10802763  F       0.00000000       0.00000000       0.00000000
O        3.05359271       1.35146153       3.02679635  F       0.00000000       0.00000000       0.00000000
O        3.05359652       1.35540103       6.10801944  F       0.00000000       0.00000000       0.00000000
O        0.00000000       4.05438459       3.02679635  F       0.00000000       0.00000000       0.00000000
O        0.00000000       1.35146153       3.02679635  F       0.00000000       0.00000000       0.00000000
Pd       7.63346816       5.39267326      12.00110229  T       0.00000000       0.00000000       0.00000000
Pd      10.68665188       5.40017174      12.02009872  T       0.00000000       0.00000000       0.00000000
Pd       0.00000000       8.10876919       1.50000000  F       0.00000000       0.00000000       0.00000000
Pd       9.16523112       8.10158513      10.76201980  T       0.00000000       0.00000000       0.00000000
Pd       1.52679635       0.00000000       3.02679635  F       0.00000000       0.00000000       0.00000000
Pd       9.16077813       2.70292306       1.50000000  F       0.00000000       0.00000000       0.00000000
Pd      10.68757448       0.00000000       3.02679635  F       0.00000000       0.00000000       0.00000000
Pd      10.68864699       5.40125269       9.14317339  T       0.00000000       0.00000000       0.00000000
Pd       1.53444181      -0.00305451      12.01765977  T       0.00000000       0.00000000       0.00000000
Pd       9.16077900       2.70292450       4.56559698  F       0.00000000       0.00000000       0.00000000
Pd      10.68756280      10.81168006       6.11657659  F       0.00000000       0.00000000       0.00000000
Pd       9.16077776       8.10875607       4.56559406  F       0.00000000       0.00000000       0.00000000
Pd       1.52678677       0.00000067       6.11658292  F       0.00000000       0.00000000       0.00000000
Pd       9.16596506       8.10641433       7.64892295  T       0.00000000       0.00000000       0.00000000
Pd       9.16655843       2.70070566       7.64742439  T       0.00000000       0.00000000       0.00000000
Pd      10.69398232      -0.00646594       9.13932544  T       0.00000000       0.00000000       0.00000000
Pd       0.00000135       2.70292705       4.56560641  F       0.00000000       0.00000000       0.00000000
Pd       1.53362344      10.80599091       9.13610445  T       0.00000000       0.00000000       0.00000000
Pd       9.16747182       2.69084185      10.75736821  T       0.00000000       0.00000000       0.00000000
Pd       6.10696508       8.10047741      10.75258777  T       0.00000000       0.00000000       0.00000000
Pd      10.69755829      10.79734561      12.01526164  T       0.00000000       0.00000000       0.00000000
Pd       0.00396691       2.70360280       7.64952630  T       0.00000000       0.00000000       0.00000000
Pd      10.68757280       5.40584816       6.11657764  F       0.00000000       0.00000000       0.00000000
Pd       9.16077813       8.10876919       1.50000000  F       0.00000000       0.00000000       0.00000000
Pd      10.68757448       5.40584612       3.02679635  F       0.00000000       0.00000000       0.00000000
Pd      12.22543383       2.69678261      10.75703400  T       0.00000000       0.00000000       0.00000000
Pd       4.58327221      -0.00611533       9.13567688  T       0.00000000       0.00000000       0.00000000
Pd       7.63397856       5.40585179       6.11657833  F       0.00000000       0.00000000       0.00000000
Pd       7.63432617       5.40020472       9.13501072  T       0.00000000       0.00000000       0.00000000
Pd       4.58313441       5.39731451      12.01844638  T       0.00000000       0.00000000       0.00000000
Pd       3.04815686       8.10242352      10.76186317  T       0.00000000       0.00000000       0.00000000
Pd       4.58038906       0.00000000       3.02679635  F       0.00000000       0.00000000       0.00000000
Pd       4.58011849       5.40013130       9.13923550  T       0.00000000       0.00000000       0.00000000
Pd       3.05381995       8.10658385       7.64877079  T       0.00000000       0.00000000       0.00000000
Pd       3.05359494       2.70292824       4.56560681  F       0.00000000       0.00000000       0.00000000
Pd       3.05359271       2.70292306       1.50000000  F       0.00000000       0.00000000       0.00000000
Pd       4.58039501       5.40584640       6.11658908  F       0.00000000       0.00000000       0.00000000
Pd       4.58040505      10.81168838       6.11658203  F       0.00000000       0.00000000       0.00000000
Pd       4.58038906       5.40584612       3.02679635  F       0.00000000       0.00000000       0.00000000
Pd       3.05359271       8.10876919       1.50000000  F       0.00000000       0.00000000       0.00000000
Pd       3.05324940       2.70186938       7.65129025  T       0.00000000       0.00000000       0.00000000
Pd       4.58414151      -0.01044677      12.01051613  T       0.00000000       0.00000000       0.00000000
Pd       3.05352369       2.69650823      10.76621751  T       0.00000000       0.00000000       0.00000000
Pd       3.05359569       8.10876742       4.56559865  F       0.00000000       0.00000000       0.00000000
Pd       6.10718542       2.70292306       1.50000000  F       0.00000000       0.00000000       0.00000000
Pd       7.63398177       0.00000000       3.02679635  F       0.00000000       0.00000000       0.00000000
Pd       1.52759436       5.39930323      12.09089144  T       0.00000000       0.00000000       0.00000000
Pd       6.10534078       8.10521857       7.64508578  T       0.00000000       0.00000000       0.00000000
Pd       0.00000079       8.10876600       4.56559869  F       0.00000000       0.00000000       0.00000000
Pd       6.10718651       8.10875952       4.56558968  F       0.00000000       0.00000000       0.00000000
Pd       1.52680247       5.40584247       6.11658534  F       0.00000000       0.00000000       0.00000000
Pd       7.63398177       5.40584612       3.02679635  F       0.00000000       0.00000000       0.00000000
Pd       6.10718542       8.10876919       1.50000000  F       0.00000000       0.00000000       0.00000000
Pd       0.00269760       8.10803780       7.64751212  T       0.00000000       0.00000000       0.00000000
Pd       7.63987666      10.79219985      12.00785208  T       0.00000000       0.00000000       0.00000000
Pd       6.10723973       2.68982774      10.75531872  T       0.00000000       0.00000000       0.00000000
Pd       1.52914937       5.40092981       9.13545975  T       0.00000000       0.00000000       0.00000000
Pd       7.63839872      -0.00554073       9.13392845  T       0.00000000       0.00000000       0.00000000
Pd       6.10558172       2.69984003       7.64714682  T       0.00000000       0.00000000       0.00000000
Pd      12.22824964       8.10229698      10.75713012  T       0.00000000       0.00000000       0.00000000
Pd       7.63399583      10.81167532       6.11657540  F       0.00000000       0.00000000       0.00000000
Pd       6.10718592       2.70292523       4.56558724  F       0.00000000       0.00000000       0.00000000
Pd       1.52679635       5.40584612       3.02679635  F       0.00000000       0.00000000       0.00000000
Pd       0.00000000       2.70292306       1.50000000  F       0.00000000       0.00000000       0.00000000
O        2.74472020       8.23979952      15.92171067  T       0.00000000       0.00000000       0.00000000
C        1.98567889       7.73731153      15.10992572  T       0.00000000       0.00000000       0.00000000
H        1.50162725       6.73931084      15.30483750  T       0.00000000       0.00000000       0.00000000
H        1.72018749       8.22416515      14.14190903  T       0.00000000       0.00000000       0.00000000
H        1.52436575       5.39604529      13.62721158  T       0.00000000       0.00000000       0.00000000
