133
Lattice="12.21437083684855 0.0 7e-16 1.7e-15 10.811692246786171 7e-16 0.0 0.0 30.687574482242482" Properties=species:S:1:pos:R:3:move_mask:L:1:momenta:R:3 adsorbate_info="_JSON {\"site\": {\"coordinates\": [10.687590445862378, 1.2891153792162742, 12.116895936438418], \"connectivity\": 2, \"topology\": [28, 46], \"n_vector\": [0.007050838757450331, 0.09666355937237267, 0.9952921390035593], \"h_vector\": [0.9999999999666517, -8.144562400610183e-06, -6.024330784657984e-07], \"site_formula\": {\"O\": 2}}, \"smiles\": \"ClOC\", \"mdf\": 2.044417537330034, \"adsorbate_formula\": \"CH3O\"}" mace_E=-698.6192145717573 converged=T n_steps=59 d_min=2.9194577413160028 site_type=atop dE_rel_meV=0 original_idx=330 rank=400 E_MACE=-697.4956757078851 pbc="T T T"
O        3.03164917       6.71034766      12.16416047  T       0.00000000       0.00000000       0.00000000
O        6.05800687       1.30607984      12.15460539  T       0.00000000       0.00000000       0.00000000
O        6.08648781       4.10433385      12.15597193  T       0.00000000       0.00000000       0.00000000
O        6.07951049       1.35625666       9.16304430  T       0.00000000       0.00000000       0.00000000
O        6.09629693       4.05283397       9.15987944  T       0.00000000       0.00000000       0.00000000
O        6.10718343       1.35539432       6.10801899  F       0.00000000       0.00000000       0.00000000
O        6.10718534       4.05045008       6.10801162  F       0.00000000       0.00000000       0.00000000
O        6.10718542       1.35146153       3.02679635  F       0.00000000       0.00000000       0.00000000
O        6.10718542       4.05438459       3.02679635  F       0.00000000       0.00000000       0.00000000
O        9.10009502       9.50492406      12.15515516  T       0.00000000       0.00000000       0.00000000
O        3.00631831       9.50502584      12.16651490  T       0.00000000       0.00000000       0.00000000
O        3.04426170       6.76319184       9.16326395  T       0.00000000       0.00000000       0.00000000
O        3.03032318       9.45844741       9.16711715  T       0.00000000       0.00000000       0.00000000
O        3.05359341       6.76124998       6.10801980  F       0.00000000       0.00000000       0.00000000
O        3.05359360       9.45629444       6.10802097  F       0.00000000       0.00000000       0.00000000
O        3.05359271       6.75730765       3.02679635  F       0.00000000       0.00000000       0.00000000
O        3.05359271       9.46023072       3.02679635  F       0.00000000       0.00000000       0.00000000
O        3.01117777       1.30780082      12.16222480  T       0.00000000       0.00000000       0.00000000
O        6.10718542       9.46023072       3.02679635  F       0.00000000       0.00000000       0.00000000
O        6.10718542       6.75730765       3.02679635  F       0.00000000       0.00000000       0.00000000
O        6.10718028       9.45628983       6.10801454  F       0.00000000       0.00000000       0.00000000
O        6.10718760       6.76124043       6.10802244  F       0.00000000       0.00000000       0.00000000
O        9.14347756       6.76616270       9.16254414  T       0.00000000       0.00000000       0.00000000
O        9.13502719       9.46620257       9.17404648  T       0.00000000       0.00000000       0.00000000
O        9.16078073       6.76123572       6.10801818  F       0.00000000       0.00000000       0.00000000
O        9.16078059       9.45627785       6.10801483  F       0.00000000       0.00000000       0.00000000
O        9.16077813       6.75730765       3.02679635  F       0.00000000       0.00000000       0.00000000
O        9.16077813       9.46023072       3.02679635  F       0.00000000       0.00000000       0.00000000
O        9.09355548       1.31825132      12.13173218  T       0.00000000       0.00000000       0.00000000
O        9.13737167       4.11169030      12.15468739  T       0.00000000       0.00000000       0.00000000
O        3.02555808       4.10430134      12.15773352  T       0.00000000       0.00000000       0.00000000
O        9.13183612       1.35886378       9.17199089  T       0.00000000       0.00000000       0.00000000
O        9.16077827       1.35539012       6.10801450  F       0.00000000       0.00000000       0.00000000
O        9.16078421       4.05045012       6.10800209  F       0.00000000       0.00000000       0.00000000
O        9.16077813       1.35146153       3.02679635  F       0.00000000       0.00000000       0.00000000
O        9.16077813       4.05438459       3.02679635  F       0.00000000       0.00000000       0.00000000
O        6.07818868       6.71210512      12.17075862  T       0.00000000       0.00000000       0.00000000
O        6.06025902       9.50404928      12.16832431  T       0.00000000       0.00000000       0.00000000
O        6.08826089       6.76467553       9.16614727  T       0.00000000       0.00000000       0.00000000
O        6.08151244       9.45699229       9.16865947  T       0.00000000       0.00000000       0.00000000
O        9.14444115       4.06294904       9.15400613  T       0.00000000       0.00000000       0.00000000
O        3.03190862       1.35591915       9.16333442  T       0.00000000       0.00000000       0.00000000
O        9.13336347       6.72151142      12.16151980  T       0.00000000       0.00000000       0.00000000
O       12.18632636       9.50382422      12.14386866  T       0.00000000       0.00000000       0.00000000
O        0.00000000       6.75730765       3.02679635  F       0.00000000       0.00000000       0.00000000
O        3.03932791       4.05169787       9.16041293  T       0.00000000       0.00000000       0.00000000
O       -0.02063773       1.32579577      12.13315878  T       0.00000000       0.00000000       0.00000000
O        0.00000951       9.45630243       6.10801529  F       0.00000000       0.00000000       0.00000000
O       12.18721979       4.11017937      12.14930089  T       0.00000000       0.00000000       0.00000000
O        0.00000182       6.76124509       6.10800952  F       0.00000000       0.00000000       0.00000000
O       -0.02419228       9.46832842       9.16782706  T       0.00000000       0.00000000       0.00000000
O       -0.02189498       1.35753694       9.17002830  T       0.00000000       0.00000000       0.00000000
O       -0.00956421       6.76265012       9.15606101  T       0.00000000       0.00000000       0.00000000
O       12.20040034       4.06220165       9.15095463  T       0.00000000       0.00000000       0.00000000
O       12.19308852       6.71894271      12.15019813  T       0.00000000       0.00000000       0.00000000
O        0.00000448       1.35539672       6.10801283  F       0.00000000       0.00000000       0.00000000
O        0.00000331       4.05045002       6.10801189  F       0.00000000       0.00000000       0.00000000
O        3.05359271       4.05438459       3.02679635  F       0.00000000       0.00000000       0.00000000
O        0.00000000       9.46023072       3.02679635  F       0.00000000       0.00000000       0.00000000
O        3.05359105       4.05044320       6.10802763  F       0.00000000       0.00000000       0.00000000
O        3.05359271       1.35146153       3.02679635  F       0.00000000       0.00000000       0.00000000
O        3.05359652       1.35540103       6.10801944  F       0.00000000       0.00000000       0.00000000
O        0.00000000       4.05438459       3.02679635  F       0.00000000       0.00000000       0.00000000
O        0.00000000       1.35146153       3.02679635  F       0.00000000       0.00000000       0.00000000
Pd       7.60915701       5.41463125      12.00984995  T       0.00000000       0.00000000       0.00000000
Pd      10.66192829       5.42042221      12.00550088  T       0.00000000       0.00000000       0.00000000
Pd       0.00000000       8.10876919       1.50000000  F       0.00000000       0.00000000       0.00000000
Pd       9.12832653       8.11433591      10.75550026  T       0.00000000       0.00000000       0.00000000
Pd       1.52679635       0.00000000       3.02679635  F       0.00000000       0.00000000       0.00000000
Pd       9.16077813       2.70292306       1.50000000  F       0.00000000       0.00000000       0.00000000
Pd      10.68757448       0.00000000       3.02679635  F       0.00000000       0.00000000       0.00000000
Pd      10.67287916       5.41444010       9.12998588  T       0.00000000       0.00000000       0.00000000
Pd       1.48790776       0.00216349      12.00482788  T       0.00000000       0.00000000       0.00000000
Pd       9.16077900       2.70292450       4.56559698  F       0.00000000       0.00000000       0.00000000
Pd      10.68756280      10.81168006       6.11657659  F       0.00000000       0.00000000       0.00000000
Pd       9.16077776       8.10875607       4.56559406  F       0.00000000       0.00000000       0.00000000
Pd       1.52678677       0.00000067       6.11658292  F       0.00000000       0.00000000       0.00000000
Pd       9.15279550       8.11377071       7.64862435  T       0.00000000       0.00000000       0.00000000
Pd       9.15271833       2.70450894       7.64607424  T       0.00000000       0.00000000       0.00000000
Pd      10.66097249       0.00769022       9.18090808  T       0.00000000       0.00000000       0.00000000
Pd       0.00000135       2.70292705       4.56560641  F       0.00000000       0.00000000       0.00000000
Pd       1.50608961      10.81608742       9.13800034  T       0.00000000       0.00000000       0.00000000
Pd       9.12882297       2.72105641      10.74396330  T       0.00000000       0.00000000       0.00000000
Pd       6.07301634       8.10746939      10.76642383  T       0.00000000       0.00000000       0.00000000
Pd      10.64480294      10.82248813      12.09481897  T       0.00000000       0.00000000       0.00000000
Pd      -0.01310012       2.70431625       7.64466871  T       0.00000000       0.00000000       0.00000000
Pd      10.68757280       5.40584816       6.11657764  F       0.00000000       0.00000000       0.00000000
Pd       9.16077813       8.10876919       1.50000000  F       0.00000000       0.00000000       0.00000000
Pd      10.68757448       5.40584612       3.02679635  F       0.00000000       0.00000000       0.00000000
Pd      12.18892700       2.71935631      10.74116395  T       0.00000000       0.00000000       0.00000000
Pd       4.55547445      -0.00028227       9.13832482  T       0.00000000       0.00000000       0.00000000
Pd       7.63397856       5.40585179       6.11657833  F       0.00000000       0.00000000       0.00000000
Pd       7.61701099       5.41307361       9.13283806  T       0.00000000       0.00000000       0.00000000
Pd       4.55611879       5.40504738      12.00912070  T       0.00000000       0.00000000       0.00000000
Pd       3.02990424       8.10841659      10.76338865  T       0.00000000       0.00000000       0.00000000
Pd       4.58038906       0.00000000       3.02679635  F       0.00000000       0.00000000       0.00000000
Pd       4.56749727       5.40579428       9.13099350  T       0.00000000       0.00000000       0.00000000
Pd       3.04637468       8.11088724       7.64872713  T       0.00000000       0.00000000       0.00000000
Pd       3.05359494       2.70292824       4.56560681  F       0.00000000       0.00000000       0.00000000
Pd       3.05359271       2.70292306       1.50000000  F       0.00000000       0.00000000       0.00000000
Pd       4.58039501       5.40584640       6.11658908  F       0.00000000       0.00000000       0.00000000
Pd       4.58040505      10.81168838       6.11658203  F       0.00000000       0.00000000       0.00000000
Pd       4.58038906       5.40584612       3.02679635  F       0.00000000       0.00000000       0.00000000
Pd       3.05359271       8.10876919       1.50000000  F       0.00000000       0.00000000       0.00000000
Pd       3.04406406       2.70270391       7.64708153  T       0.00000000       0.00000000       0.00000000
Pd       4.53377131      -0.00252975      12.01458155  T       0.00000000       0.00000000       0.00000000
Pd       3.02794205       2.70422895      10.75912397  T       0.00000000       0.00000000       0.00000000
Pd       3.05359569       8.10876742       4.56559865  F       0.00000000       0.00000000       0.00000000
Pd       6.10718542       2.70292306       1.50000000  F       0.00000000       0.00000000       0.00000000
Pd       7.63398177       0.00000000       3.02679635  F       0.00000000       0.00000000       0.00000000
Pd       1.50209105       5.41247811      12.00318879  T       0.00000000       0.00000000       0.00000000
Pd       6.09516850       8.11078631       7.64954402  T       0.00000000       0.00000000       0.00000000
Pd       0.00000079       8.10876600       4.56559869  F       0.00000000       0.00000000       0.00000000
Pd       6.10718651       8.10875952       4.56558968  F       0.00000000       0.00000000       0.00000000
Pd       1.52680247       5.40584247       6.11658534  F       0.00000000       0.00000000       0.00000000
Pd       7.63398177       5.40584612       3.02679635  F       0.00000000       0.00000000       0.00000000
Pd       6.10718542       8.10876919       1.50000000  F       0.00000000       0.00000000       0.00000000
Pd      -0.01165177       8.11337453       7.64575274  T       0.00000000       0.00000000       0.00000000
Pd       7.58094865      10.81075509      12.00304947  T       0.00000000       0.00000000       0.00000000
Pd       6.07853844       2.70585978      10.75540136  T       0.00000000       0.00000000       0.00000000
Pd       1.51696975       5.40976859       9.12835727  T       0.00000000       0.00000000       0.00000000
Pd       7.60403771       0.00345446       9.14054944  T       0.00000000       0.00000000       0.00000000
Pd       6.09955282       2.70304046       7.64660123  T       0.00000000       0.00000000       0.00000000
Pd      12.19137258       8.11317019      10.74539078  T       0.00000000       0.00000000       0.00000000
Pd       7.63399583      10.81167532       6.11657540  F       0.00000000       0.00000000       0.00000000
Pd       6.10718592       2.70292523       4.56558724  F       0.00000000       0.00000000       0.00000000
Pd       1.52679635       5.40584612       3.02679635  F       0.00000000       0.00000000       0.00000000
Pd       0.00000000       2.70292306       1.50000000  F       0.00000000       0.00000000       0.00000000
O       10.70840068       0.03424384      14.08790481  T       0.00000000       0.00000000       0.00000000
C       10.47804616       1.29151285      14.69365730  T       0.00000000       0.00000000       0.00000000
H       10.76445656       1.12649372      15.75473725  T       0.00000000       0.00000000       0.00000000
H       11.11110337       2.10103442      14.27543206  T       0.00000000       0.00000000       0.00000000
H        9.41293592       1.59960503      14.64955392  T       0.00000000       0.00000000       0.00000000
