133
Lattice="12.21437083684855 0.0 7e-16 1.7e-15 10.811692246786171 7e-16 0.0 0.0 30.687574482242482" Properties=species:S:1:pos:R:3:move_mask:L:1:momenta:R:3 adsorbate_info="_JSON {\"site\": {\"coordinates\": [6.870558875757448, 6.050379468075703, 12.04626386301415], \"connectivity\": 2, \"topology\": [36, 64], \"n_vector\": [0.041692372410039494, -0.05611623617241711, 0.9975533640465878], \"h_vector\": [-0.7621408936643297, 0.6435616836358626, 0.070495514469436], \"site_formula\": {\"O\": 1, \"Pd\": 1}}, \"smiles\": \"ClOC\", \"mdf\": 1.9706207137621237, \"adsorbate_formula\": \"CH3O\"}" mace_E=-698.6134322819256 converged=T n_steps=48 d_min=1.9966571326152924 site_type=unknown dE_rel_meV=0 original_idx=220 rank=9 E_MACE=-698.6251874897306 pbc="T T T"
O        3.00949805       6.72512085      12.17219613  T       0.00000000       0.00000000       0.00000000
O        6.05899883       1.32280178      12.17693050  T       0.00000000       0.00000000       0.00000000
O        6.05739814       4.11280427      12.18651042  T       0.00000000       0.00000000       0.00000000
O        6.07030131       1.36771638       9.17930282  T       0.00000000       0.00000000       0.00000000
O        6.07907220       4.06379258       9.18825062  T       0.00000000       0.00000000       0.00000000
O        6.10718343       1.35539432       6.10801899  F       0.00000000       0.00000000       0.00000000
O        6.10718534       4.05045008       6.10801162  F       0.00000000       0.00000000       0.00000000
O        6.10718542       1.35146153       3.02679635  F       0.00000000       0.00000000       0.00000000
O        6.10718542       4.05438459       3.02679635  F       0.00000000       0.00000000       0.00000000
O        9.11053321       9.52336739      12.16434285  T       0.00000000       0.00000000       0.00000000
O        3.00950289       9.52123734      12.17229403  T       0.00000000       0.00000000       0.00000000
O        3.02251294       6.76964885       9.17511518  T       0.00000000       0.00000000       0.00000000
O        3.02125440       9.46460502       9.16737197  T       0.00000000       0.00000000       0.00000000
O        3.05359341       6.76124998       6.10801980  F       0.00000000       0.00000000       0.00000000
O        3.05359360       9.45629444       6.10802097  F       0.00000000       0.00000000       0.00000000
O        3.05359271       6.75730765       3.02679635  F       0.00000000       0.00000000       0.00000000
O        3.05359271       9.46023072       3.02679635  F       0.00000000       0.00000000       0.00000000
O        3.00628889       1.31962157      12.17597320  T       0.00000000       0.00000000       0.00000000
O        6.10718542       9.46023072       3.02679635  F       0.00000000       0.00000000       0.00000000
O        6.10718542       6.75730765       3.02679635  F       0.00000000       0.00000000       0.00000000
O        6.10718028       9.45628983       6.10801454  F       0.00000000       0.00000000       0.00000000
O        6.10718760       6.76124043       6.10802244  F       0.00000000       0.00000000       0.00000000
O        9.12709995       6.76847965       9.18202877  T       0.00000000       0.00000000       0.00000000
O        9.11935393       9.46761942       9.15922169  T       0.00000000       0.00000000       0.00000000
O        9.16078073       6.76123572       6.10801818  F       0.00000000       0.00000000       0.00000000
O        9.16078059       9.45627785       6.10801483  F       0.00000000       0.00000000       0.00000000
O        9.16077813       6.75730765       3.02679635  F       0.00000000       0.00000000       0.00000000
O        9.16077813       9.46023072       3.02679635  F       0.00000000       0.00000000       0.00000000
O        9.11685565       1.31920575      12.16060018  T       0.00000000       0.00000000       0.00000000
O        9.12954952       4.11311296      12.17245506  T       0.00000000       0.00000000       0.00000000
O        3.01065757       4.11071132      12.17225714  T       0.00000000       0.00000000       0.00000000
O        9.12279080       1.36431554       9.17060120  T       0.00000000       0.00000000       0.00000000
O        9.16077827       1.35539012       6.10801450  F       0.00000000       0.00000000       0.00000000
O        9.16078421       4.05045012       6.10800209  F       0.00000000       0.00000000       0.00000000
O        9.16077813       1.35146153       3.02679635  F       0.00000000       0.00000000       0.00000000
O        9.16077813       4.05438459       3.02679635  F       0.00000000       0.00000000       0.00000000
O        6.03357161       6.75026146      12.16646011  T       0.00000000       0.00000000       0.00000000
O        6.06241266       9.52664870      12.17433383  T       0.00000000       0.00000000       0.00000000
O        6.07042075       6.77213049       9.18940301  T       0.00000000       0.00000000       0.00000000
O        6.07141501       9.46668920       9.16261663  T       0.00000000       0.00000000       0.00000000
O        9.12617591       4.06455515       9.18142499  T       0.00000000       0.00000000       0.00000000
O        3.02095078       1.36251417       9.17455774  T       0.00000000       0.00000000       0.00000000
O        9.15117292       6.75585401      12.16883533  T       0.00000000       0.00000000       0.00000000
O       12.16828613       9.51821838      12.16770553  T       0.00000000       0.00000000       0.00000000
O        0.00000000       6.75730765       3.02679635  F       0.00000000       0.00000000       0.00000000
O        3.02333257       4.05746518       9.16843935  T       0.00000000       0.00000000       0.00000000
O       -0.04704527       1.31721628      12.15694426  T       0.00000000       0.00000000       0.00000000
O        0.00000951       9.45630243       6.10801529  F       0.00000000       0.00000000       0.00000000
O       12.17291268       4.11203274      12.15457582  T       0.00000000       0.00000000       0.00000000
O        0.00000182       6.76124509       6.10800952  F       0.00000000       0.00000000       0.00000000
O       -0.03536195       9.46626386       9.16274890  T       0.00000000       0.00000000       0.00000000
O       -0.03794797       1.35914324       9.16591029  T       0.00000000       0.00000000       0.00000000
O       -0.02943845       6.76974992       9.16970176  T       0.00000000       0.00000000       0.00000000
O       12.18062789       4.06043007       9.15985903  T       0.00000000       0.00000000       0.00000000
O       12.17455780       6.72453743      12.16161716  T       0.00000000       0.00000000       0.00000000
O        0.00000448       1.35539672       6.10801283  F       0.00000000       0.00000000       0.00000000
O        0.00000331       4.05045002       6.10801189  F       0.00000000       0.00000000       0.00000000
O        3.05359271       4.05438459       3.02679635  F       0.00000000       0.00000000       0.00000000
O        0.00000000       9.46023072       3.02679635  F       0.00000000       0.00000000       0.00000000
O        3.05359105       4.05044320       6.10802763  F       0.00000000       0.00000000       0.00000000
O        3.05359271       1.35146153       3.02679635  F       0.00000000       0.00000000       0.00000000
O        3.05359652       1.35540103       6.10801944  F       0.00000000       0.00000000       0.00000000
O        0.00000000       4.05438459       3.02679635  F       0.00000000       0.00000000       0.00000000
O        0.00000000       1.35146153       3.02679635  F       0.00000000       0.00000000       0.00000000
Pd       7.59313215       5.44752112      12.13984263  T       0.00000000       0.00000000       0.00000000
Pd      10.64900289       5.41963430      12.01825050  T       0.00000000       0.00000000       0.00000000
Pd       0.00000000       8.10876919       1.50000000  F       0.00000000       0.00000000       0.00000000
Pd       9.12588459       8.12981858      10.75690605  T       0.00000000       0.00000000       0.00000000
Pd       1.52679635       0.00000000       3.02679635  F       0.00000000       0.00000000       0.00000000
Pd       9.16077813       2.70292306       1.50000000  F       0.00000000       0.00000000       0.00000000
Pd      10.68757448       0.00000000       3.02679635  F       0.00000000       0.00000000       0.00000000
Pd      10.65621493       5.41622495       9.14427894  T       0.00000000       0.00000000       0.00000000
Pd       1.48051198       0.01285568      12.02177081  T       0.00000000       0.00000000       0.00000000
Pd       9.16077900       2.70292450       4.56559698  F       0.00000000       0.00000000       0.00000000
Pd      10.68756280      10.81168006       6.11657659  F       0.00000000       0.00000000       0.00000000
Pd       9.16077776       8.10875607       4.56559406  F       0.00000000       0.00000000       0.00000000
Pd       1.52678677       0.00000067       6.11658292  F       0.00000000       0.00000000       0.00000000
Pd       9.13550809       8.10971127       7.65009930  T       0.00000000       0.00000000       0.00000000
Pd       9.13662846       2.70972037       7.65300334  T       0.00000000       0.00000000       0.00000000
Pd      10.64833108       0.00694744       9.13299519  T       0.00000000       0.00000000       0.00000000
Pd       0.00000135       2.70292705       4.56560641  F       0.00000000       0.00000000       0.00000000
Pd       1.49209819      10.81908985       9.13908850  T       0.00000000       0.00000000       0.00000000
Pd       9.12052994       2.71958074      10.76490447  T       0.00000000       0.00000000       0.00000000
Pd       6.05955993       8.13560192      10.76092302  T       0.00000000       0.00000000       0.00000000
Pd      10.64077087      10.82406555      12.01189312  T       0.00000000       0.00000000       0.00000000
Pd      -0.01801762       2.70487540       7.64818430  T       0.00000000       0.00000000       0.00000000
Pd      10.68757280       5.40584816       6.11657764  F       0.00000000       0.00000000       0.00000000
Pd       9.16077813       8.10876919       1.50000000  F       0.00000000       0.00000000       0.00000000
Pd      10.68757448       5.40584612       3.02679635  F       0.00000000       0.00000000       0.00000000
Pd      12.17186016       2.71340658      10.75566741  T       0.00000000       0.00000000       0.00000000
Pd       4.54513720       0.00978344       9.14264070  T       0.00000000       0.00000000       0.00000000
Pd       7.63397856       5.40585179       6.11657833  F       0.00000000       0.00000000       0.00000000
Pd       7.59966972       5.41844015       9.19985954  T       0.00000000       0.00000000       0.00000000
Pd       4.53448695       5.41804140      12.02989560  T       0.00000000       0.00000000       0.00000000
Pd       3.01510213       8.12265717      10.77060321  T       0.00000000       0.00000000       0.00000000
Pd       4.58038906       0.00000000       3.02679635  F       0.00000000       0.00000000       0.00000000
Pd       4.54697797       5.41454212       9.15378364  T       0.00000000       0.00000000       0.00000000
Pd       3.03689668       8.11205178       7.65236244  T       0.00000000       0.00000000       0.00000000
Pd       3.05359494       2.70292824       4.56560681  F       0.00000000       0.00000000       0.00000000
Pd       3.05359271       2.70292306       1.50000000  F       0.00000000       0.00000000       0.00000000
Pd       4.58039501       5.40584640       6.11658908  F       0.00000000       0.00000000       0.00000000
Pd       4.58040505      10.81168838       6.11658203  F       0.00000000       0.00000000       0.00000000
Pd       4.58038906       5.40584612       3.02679635  F       0.00000000       0.00000000       0.00000000
Pd       3.05359271       8.10876919       1.50000000  F       0.00000000       0.00000000       0.00000000
Pd       3.03992296       2.70485085       7.65240898  T       0.00000000       0.00000000       0.00000000
Pd       4.53334199       0.01740078      12.02515098  T       0.00000000       0.00000000       0.00000000
Pd       3.01662206       2.71287032      10.77043282  T       0.00000000       0.00000000       0.00000000
Pd       3.05359569       8.10876742       4.56559865  F       0.00000000       0.00000000       0.00000000
Pd       6.10718542       2.70292306       1.50000000  F       0.00000000       0.00000000       0.00000000
Pd       7.63398177       0.00000000       3.02679635  F       0.00000000       0.00000000       0.00000000
Pd       1.48662357       5.41816560      12.01115136  T       0.00000000       0.00000000       0.00000000
Pd       6.09288419       8.11009144       7.65229288  T       0.00000000       0.00000000       0.00000000
Pd       0.00000079       8.10876600       4.56559869  F       0.00000000       0.00000000       0.00000000
Pd       6.10718651       8.10875952       4.56558968  F       0.00000000       0.00000000       0.00000000
Pd       1.52680247       5.40584247       6.11658534  F       0.00000000       0.00000000       0.00000000
Pd       7.63398177       5.40584612       3.02679635  F       0.00000000       0.00000000       0.00000000
Pd       6.10718542       8.10876919       1.50000000  F       0.00000000       0.00000000       0.00000000
Pd      -0.01507336       8.11260155       7.65001889  T       0.00000000       0.00000000       0.00000000
Pd       7.58571203      10.83250979      12.01262202  T       0.00000000       0.00000000       0.00000000
Pd       6.06763796       2.72118299      10.77728183  T       0.00000000       0.00000000       0.00000000
Pd       1.49568781       5.41369647       9.13847204  T       0.00000000       0.00000000       0.00000000
Pd       7.59405080       0.01236705       9.13856697  T       0.00000000       0.00000000       0.00000000
Pd       6.09357246       2.70993622       7.65728738  T       0.00000000       0.00000000       0.00000000
Pd      12.17530235       8.12264508      10.76358583  T       0.00000000       0.00000000       0.00000000
Pd       7.63399583      10.81167532       6.11657540  F       0.00000000       0.00000000       0.00000000
Pd       6.10718592       2.70292523       4.56558724  F       0.00000000       0.00000000       0.00000000
Pd       1.52679635       5.40584612       3.02679635  F       0.00000000       0.00000000       0.00000000
Pd       0.00000000       2.70292306       1.50000000  F       0.00000000       0.00000000       0.00000000
O        7.63058156       5.52889015      14.13864555  T       0.00000000       0.00000000       0.00000000
C        7.45398598       6.80245989      14.73038820  T       0.00000000       0.00000000       0.00000000
H        7.71664860       6.63564933      15.79777412  T       0.00000000       0.00000000       0.00000000
H        8.13410549       7.57690170      14.32150941  T       0.00000000       0.00000000       0.00000000
H        6.40757116       7.16606039      14.66851394  T       0.00000000       0.00000000       0.00000000
