133
Lattice="12.21437083684855 0.0 7e-16 1.7e-15 10.811692246786171 7e-16 0.0 0.0 30.687574482242482" Properties=species:S:1:pos:R:3:move_mask:L:1:momenta:R:3 adsorbate_info="_JSON {\"site\": {\"coordinates\": [8.65184271291933, 5.405856674351603, 12.069821455412717], \"connectivity\": 3, \"topology\": [29, 42, 64], \"n_vector\": [-0.047900983404911154, -0.06498011123835824, 0.9967362143176564], \"h_vector\": [-0.7622109312445123, 0.6434774147312797, -0.07050753876091566], \"site_formula\": {\"O\": 2, \"Pd\": 1}}, \"smiles\": \"ClOC\", \"mdf\": 1.9929905072086085, \"adsorbate_formula\": \"CH3O\"}" mace_E=-698.6040835726808 converged=T n_steps=46 d_min=1.9956251823119249 site_type=unknown dE_rel_meV=0 original_idx=284 rank=3 E_MACE=-698.6262619367188 pbc="T T T"
O        3.08596663       6.72485397      12.15829168  T       0.00000000       0.00000000       0.00000000
O        6.14620363       1.31611797      12.17861549  T       0.00000000       0.00000000       0.00000000
O        6.13164349       4.10729481      12.17979870  T       0.00000000       0.00000000       0.00000000
O        6.14119039       1.36455521       9.17702763  T       0.00000000       0.00000000       0.00000000
O        6.13339333       4.05516711       9.18582232  T       0.00000000       0.00000000       0.00000000
O        6.10718343       1.35539432       6.10801899  F       0.00000000       0.00000000       0.00000000
O        6.10718534       4.05045008       6.10801162  F       0.00000000       0.00000000       0.00000000
O        6.10718542       1.35146153       3.02679635  F       0.00000000       0.00000000       0.00000000
O        6.10718542       4.05438459       3.02679635  F       0.00000000       0.00000000       0.00000000
O        9.20233683       9.52350067      12.15760867  T       0.00000000       0.00000000       0.00000000
O        3.08939013       9.52239500      12.15395586  T       0.00000000       0.00000000       0.00000000
O        3.07849789       6.76522713       9.16435300  T       0.00000000       0.00000000       0.00000000
O        3.08536072       9.46601676       9.15860628  T       0.00000000       0.00000000       0.00000000
O        3.05359341       6.76124998       6.10801980  F       0.00000000       0.00000000       0.00000000
O        3.05359360       9.45629444       6.10802097  F       0.00000000       0.00000000       0.00000000
O        3.05359271       6.75730765       3.02679635  F       0.00000000       0.00000000       0.00000000
O        3.05359271       9.46023072       3.02679635  F       0.00000000       0.00000000       0.00000000
O        3.09187267       1.31681085      12.16469751  T       0.00000000       0.00000000       0.00000000
O        6.10718542       9.46023072       3.02679635  F       0.00000000       0.00000000       0.00000000
O        6.10718542       6.75730765       3.02679635  F       0.00000000       0.00000000       0.00000000
O        6.10718028       9.45628983       6.10801454  F       0.00000000       0.00000000       0.00000000
O        6.10718760       6.76124043       6.10802244  F       0.00000000       0.00000000       0.00000000
O        9.19060083       6.76540065       9.18210471  T       0.00000000       0.00000000       0.00000000
O        9.19399230       9.46716346       9.15791448  T       0.00000000       0.00000000       0.00000000
O        9.16078073       6.76123572       6.10801818  F       0.00000000       0.00000000       0.00000000
O        9.16078059       9.45627785       6.10801483  F       0.00000000       0.00000000       0.00000000
O        9.16077813       6.75730765       3.02679635  F       0.00000000       0.00000000       0.00000000
O        9.16077813       9.46023072       3.02679635  F       0.00000000       0.00000000       0.00000000
O        9.19685277       1.31892119      12.17990457  T       0.00000000       0.00000000       0.00000000
O        9.21944672       4.10176085      12.15674126  T       0.00000000       0.00000000       0.00000000
O        3.08897336       4.11367285      12.15629541  T       0.00000000       0.00000000       0.00000000
O        9.19166233       1.36112870       9.17069202  T       0.00000000       0.00000000       0.00000000
O        9.16077827       1.35539012       6.10801450  F       0.00000000       0.00000000       0.00000000
O        9.16078421       4.05045012       6.10800209  F       0.00000000       0.00000000       0.00000000
O        9.16077813       1.35146153       3.02679635  F       0.00000000       0.00000000       0.00000000
O        9.16077813       4.05438459       3.02679635  F       0.00000000       0.00000000       0.00000000
O        6.12567391       6.73785697      12.17779801  T       0.00000000       0.00000000       0.00000000
O        6.14323844       9.52166598      12.16036805  T       0.00000000       0.00000000       0.00000000
O        6.13314958       6.76445770       9.18668964  T       0.00000000       0.00000000       0.00000000
O        6.14056576       9.46204919       9.16504473  T       0.00000000       0.00000000       0.00000000
O        9.18935034       4.05545185       9.17991691  T       0.00000000       0.00000000       0.00000000
O        3.08668995       1.36030355       9.16640209  T       0.00000000       0.00000000       0.00000000
O        9.22127981       6.74637473      12.15506734  T       0.00000000       0.00000000       0.00000000
O       12.25029723       9.52279064      12.16606446  T       0.00000000       0.00000000       0.00000000
O        0.00000000       6.75730765       3.02679635  F       0.00000000       0.00000000       0.00000000
O        3.07921411       4.05760414       9.16138121  T       0.00000000       0.00000000       0.00000000
O        0.03590512       1.31988915      12.18251425  T       0.00000000       0.00000000       0.00000000
O        0.00000951       9.45630243       6.10801529  F       0.00000000       0.00000000       0.00000000
O       12.24944849       4.11617493      12.16865483  T       0.00000000       0.00000000       0.00000000
O        0.00000182       6.76124509       6.10800952  F       0.00000000       0.00000000       0.00000000
O        0.02858283       9.46413359       9.16331171  T       0.00000000       0.00000000       0.00000000
O        0.02909010       1.36447796       9.17404097  T       0.00000000       0.00000000       0.00000000
O        0.02558856       6.76832328       9.16970425  T       0.00000000       0.00000000       0.00000000
O       12.24068721       4.05258658       9.16953966  T       0.00000000       0.00000000       0.00000000
O       12.25530367       6.72733702      12.16715668  T       0.00000000       0.00000000       0.00000000
O        0.00000448       1.35539672       6.10801283  F       0.00000000       0.00000000       0.00000000
O        0.00000331       4.05045002       6.10801189  F       0.00000000       0.00000000       0.00000000
O        3.05359271       4.05438459       3.02679635  F       0.00000000       0.00000000       0.00000000
O        0.00000000       9.46023072       3.02679635  F       0.00000000       0.00000000       0.00000000
O        3.05359105       4.05044320       6.10802763  F       0.00000000       0.00000000       0.00000000
O        3.05359271       1.35146153       3.02679635  F       0.00000000       0.00000000       0.00000000
O        3.05359652       1.35540103       6.10801944  F       0.00000000       0.00000000       0.00000000
O        0.00000000       4.05438459       3.02679635  F       0.00000000       0.00000000       0.00000000
O        0.00000000       1.35146153       3.02679635  F       0.00000000       0.00000000       0.00000000
Pd       7.67548814       5.42633254      12.12063153  T       0.00000000       0.00000000       0.00000000
Pd      10.72811713       5.42699584      12.01920885  T       0.00000000       0.00000000       0.00000000
Pd       0.00000000       8.10876919       1.50000000  F       0.00000000       0.00000000       0.00000000
Pd       9.20211910       8.12488859      10.75187055  T       0.00000000       0.00000000       0.00000000
Pd       1.52679635       0.00000000       3.02679635  F       0.00000000       0.00000000       0.00000000
Pd       9.16077813       2.70292306       1.50000000  F       0.00000000       0.00000000       0.00000000
Pd      10.68757448       0.00000000       3.02679635  F       0.00000000       0.00000000       0.00000000
Pd      10.71696730       5.41003339       9.15009878  T       0.00000000       0.00000000       0.00000000
Pd       1.56237526       0.01567736      12.01537596  T       0.00000000       0.00000000       0.00000000
Pd       9.16077900       2.70292450       4.56559698  F       0.00000000       0.00000000       0.00000000
Pd      10.68756280      10.81168006       6.11657659  F       0.00000000       0.00000000       0.00000000
Pd       9.16077776       8.10875607       4.56559406  F       0.00000000       0.00000000       0.00000000
Pd       1.52678677       0.00000067       6.11658292  F       0.00000000       0.00000000       0.00000000
Pd       9.17348768       8.10600649       7.64910239  T       0.00000000       0.00000000       0.00000000
Pd       9.17187814       2.71012379       7.65187668  T       0.00000000       0.00000000       0.00000000
Pd      10.72060045       0.00963921       9.13652676  T       0.00000000       0.00000000       0.00000000
Pd       0.00000135       2.70292705       4.56560641  F       0.00000000       0.00000000       0.00000000
Pd       1.55735942      10.82001807       9.13514109  T       0.00000000       0.00000000       0.00000000
Pd       9.19811749       2.70686020      10.76340057  T       0.00000000       0.00000000       0.00000000
Pd       6.13776966       8.11965388      10.76425476  T       0.00000000       0.00000000       0.00000000
Pd      10.72552629      10.82798300      12.02091312  T       0.00000000       0.00000000       0.00000000
Pd       0.01143335       2.70496724       7.65103658  T       0.00000000       0.00000000       0.00000000
Pd      10.68757280       5.40584816       6.11657764  F       0.00000000       0.00000000       0.00000000
Pd       9.16077813       8.10876919       1.50000000  F       0.00000000       0.00000000       0.00000000
Pd      10.68757448       5.40584612       3.02679635  F       0.00000000       0.00000000       0.00000000
Pd      12.24416576       2.71157317      10.77303155  T       0.00000000       0.00000000       0.00000000
Pd       4.61509123       0.00737044       9.13794449  T       0.00000000       0.00000000       0.00000000
Pd       7.63397856       5.40585179       6.11657833  F       0.00000000       0.00000000       0.00000000
Pd       7.66164017       5.41091066       9.19859846  T       0.00000000       0.00000000       0.00000000
Pd       4.61421367       5.42291453      12.02206719  T       0.00000000       0.00000000       0.00000000
Pd       3.08559449       8.12097999      10.75592366  T       0.00000000       0.00000000       0.00000000
Pd       4.58038906       0.00000000       3.02679635  F       0.00000000       0.00000000       0.00000000
Pd       4.60544459       5.41069913       9.14835701  T       0.00000000       0.00000000       0.00000000
Pd       3.06856362       8.11133388       7.64681723  T       0.00000000       0.00000000       0.00000000
Pd       3.05359494       2.70292824       4.56560681  F       0.00000000       0.00000000       0.00000000
Pd       3.05359271       2.70292306       1.50000000  F       0.00000000       0.00000000       0.00000000
Pd       4.58039501       5.40584640       6.11658908  F       0.00000000       0.00000000       0.00000000
Pd       4.58040505      10.81168838       6.11658203  F       0.00000000       0.00000000       0.00000000
Pd       4.58038906       5.40584612       3.02679635  F       0.00000000       0.00000000       0.00000000
Pd       3.05359271       8.10876919       1.50000000  F       0.00000000       0.00000000       0.00000000
Pd       3.07034403       2.70485670       7.64773595  T       0.00000000       0.00000000       0.00000000
Pd       4.61837654       0.01351659      12.01331907  T       0.00000000       0.00000000       0.00000000
Pd       3.08809619       2.71154853      10.75956313  T       0.00000000       0.00000000       0.00000000
Pd       3.05359569       8.10876742       4.56559865  F       0.00000000       0.00000000       0.00000000
Pd       6.10718542       2.70292306       1.50000000  F       0.00000000       0.00000000       0.00000000
Pd       7.63398177       0.00000000       3.02679635  F       0.00000000       0.00000000       0.00000000
Pd       1.56218430       5.41784688      12.00655456  T       0.00000000       0.00000000       0.00000000
Pd       6.12750052       8.10784720       7.65098468  T       0.00000000       0.00000000       0.00000000
Pd       0.00000079       8.10876600       4.56559869  F       0.00000000       0.00000000       0.00000000
Pd       6.10718651       8.10875952       4.56558968  F       0.00000000       0.00000000       0.00000000
Pd       1.52680247       5.40584247       6.11658534  F       0.00000000       0.00000000       0.00000000
Pd       7.63398177       5.40584612       3.02679635  F       0.00000000       0.00000000       0.00000000
Pd       6.10718542       8.10876919       1.50000000  F       0.00000000       0.00000000       0.00000000
Pd       0.01172923       8.11160239       7.64875808  T       0.00000000       0.00000000       0.00000000
Pd       7.67215667      10.82310267      12.01808835  T       0.00000000       0.00000000       0.00000000
Pd       6.14280615       2.71064537      10.77354110  T       0.00000000       0.00000000       0.00000000
Pd       1.55117337       5.41108025       9.13578016  T       0.00000000       0.00000000       0.00000000
Pd       7.66597773       0.00775624       9.14266788  T       0.00000000       0.00000000       0.00000000
Pd       6.12813962       2.70761348       7.65379968  T       0.00000000       0.00000000       0.00000000
Pd      12.24495851       8.12289362      10.76404623  T       0.00000000       0.00000000       0.00000000
Pd       7.63399583      10.81167532       6.11657540  F       0.00000000       0.00000000       0.00000000
Pd       6.10718592       2.70292523       4.56558724  F       0.00000000       0.00000000       0.00000000
Pd       1.52679635       5.40584612       3.02679635  F       0.00000000       0.00000000       0.00000000
Pd       0.00000000       2.70292306       1.50000000  F       0.00000000       0.00000000       0.00000000
O        7.77643047       5.50486954      14.11545694  T       0.00000000       0.00000000       0.00000000
C        7.75139122       4.26856156      14.79899676  T       0.00000000       0.00000000       0.00000000
H        8.13662507       4.51658038      15.81206731  T       0.00000000       0.00000000       0.00000000
H        6.72661908       3.85372071      14.89506076  T       0.00000000       0.00000000       0.00000000
H        8.41899012       3.50266496      14.35568082  T       0.00000000       0.00000000       0.00000000
