133
Lattice="12.21437083684855 0.0 7e-16 1.7e-15 10.811692246786171 7e-16 0.0 0.0 30.687574482242482" Properties=species:S:1:pos:R:3:move_mask:L:1:momenta:R:3 adsorbate_info="_JSON {\"site\": {\"coordinates\": [11.450955421130365, 10.167122089412125, 12.046280299826899], \"connectivity\": 2, \"topology\": [43, 84], \"n_vector\": [0.0485930098309512, 0.0502410304830898, 0.9975542883731022], \"h_vector\": [0.7621685402464392, -0.6435272955244955, 0.07051053945007439], \"site_formula\": {\"O\": 1, \"Pd\": 1}}, \"smiles\": \"ClOC\", \"mdf\": 1.9758832548543181, \"adsorbate_formula\": \"CH3O\"}" mace_E=-698.5784691112927 converged=T n_steps=52 d_min=1.9969427149332715 site_type=unknown dE_rel_meV=0 original_idx=376 rank=202 E_MACE=-698.5855391105816 pbc="T T T"
O        3.11938217       6.69910193      12.16848071  T       0.00000000       0.00000000       0.00000000
O        6.18688788       1.29031519      12.14959140  T       0.00000000       0.00000000       0.00000000
O        6.17323367       4.08931131      12.15566057  T       0.00000000       0.00000000       0.00000000
O        6.15594032       1.34689718       9.15879183  T       0.00000000       0.00000000       0.00000000
O        6.15287886       4.04918064       9.16128669  T       0.00000000       0.00000000       0.00000000
O        6.10718343       1.35539432       6.10801899  F       0.00000000       0.00000000       0.00000000
O        6.10718534       4.05045008       6.10801162  F       0.00000000       0.00000000       0.00000000
O        6.10718542       1.35146153       3.02679635  F       0.00000000       0.00000000       0.00000000
O        6.10718542       4.05438459       3.02679635  F       0.00000000       0.00000000       0.00000000
O        9.21942393       9.47329365      12.17565076  T       0.00000000       0.00000000       0.00000000
O        3.13317309       9.49123985      12.17338777  T       0.00000000       0.00000000       0.00000000
O        3.09689045       6.75420898       9.16722935  T       0.00000000       0.00000000       0.00000000
O        3.10330844       9.44908802       9.17364469  T       0.00000000       0.00000000       0.00000000
O        3.05359341       6.76124998       6.10801980  F       0.00000000       0.00000000       0.00000000
O        3.05359360       9.45629444       6.10802097  F       0.00000000       0.00000000       0.00000000
O        3.05359271       6.75730765       3.02679635  F       0.00000000       0.00000000       0.00000000
O        3.05359271       9.46023072       3.02679635  F       0.00000000       0.00000000       0.00000000
O        3.13781987       1.29611991      12.16426596  T       0.00000000       0.00000000       0.00000000
O        6.10718542       9.46023072       3.02679635  F       0.00000000       0.00000000       0.00000000
O        6.10718542       6.75730765       3.02679635  F       0.00000000       0.00000000       0.00000000
O        6.10718028       9.45628983       6.10801454  F       0.00000000       0.00000000       0.00000000
O        6.10718760       6.76124043       6.10802244  F       0.00000000       0.00000000       0.00000000
O        9.21032249       6.75253102       9.16210969  T       0.00000000       0.00000000       0.00000000
O        9.21143982       9.45040312       9.18437214  T       0.00000000       0.00000000       0.00000000
O        9.16078073       6.76123572       6.10801818  F       0.00000000       0.00000000       0.00000000
O        9.16078059       9.45627785       6.10801483  F       0.00000000       0.00000000       0.00000000
O        9.16077813       6.75730765       3.02679635  F       0.00000000       0.00000000       0.00000000
O        9.16077813       9.46023072       3.02679635  F       0.00000000       0.00000000       0.00000000
O        9.21862997       1.30936421      12.16228180  T       0.00000000       0.00000000       0.00000000
O        9.22378496       4.09344084      12.14482319  T       0.00000000       0.00000000       0.00000000
O        3.12043768       4.09015588      12.16273947  T       0.00000000       0.00000000       0.00000000
O        9.21231520       1.34107272       9.17721067  T       0.00000000       0.00000000       0.00000000
O        9.16077827       1.35539012       6.10801450  F       0.00000000       0.00000000       0.00000000
O        9.16078421       4.05045012       6.10800209  F       0.00000000       0.00000000       0.00000000
O        9.16077813       1.35146153       3.02679635  F       0.00000000       0.00000000       0.00000000
O        9.16077813       4.05438459       3.02679635  F       0.00000000       0.00000000       0.00000000
O        6.17265814       6.69987245      12.16431164  T       0.00000000       0.00000000       0.00000000
O        6.18663041       9.49230116      12.16111773  T       0.00000000       0.00000000       0.00000000
O        6.15227117       6.75141642       9.16031363  T       0.00000000       0.00000000       0.00000000
O        6.15532218       9.44981952       9.16799372  T       0.00000000       0.00000000       0.00000000
O        9.20904896       4.04475722       9.16112866  T       0.00000000       0.00000000       0.00000000
O        3.10040410       1.34708399       9.16462203  T       0.00000000       0.00000000       0.00000000
O        9.22647281       6.69695293      12.15535393  T       0.00000000       0.00000000       0.00000000
O       12.30922043       9.48459766      12.15797772  T       0.00000000       0.00000000       0.00000000
O        0.00000000       6.75730765       3.02679635  F       0.00000000       0.00000000       0.00000000
O        3.09644944       4.04663693       9.16815632  T       0.00000000       0.00000000       0.00000000
O        0.09969453       1.30498773      12.16604242  T       0.00000000       0.00000000       0.00000000
O        0.00000951       9.45630243       6.10801529  F       0.00000000       0.00000000       0.00000000
O       12.28053980       4.08882843      12.16568447  T       0.00000000       0.00000000       0.00000000
O        0.00000182       6.76124509       6.10800952  F       0.00000000       0.00000000       0.00000000
O        0.05143377       9.44850937       9.18344158  T       0.00000000       0.00000000       0.00000000
O        0.05063799       1.34688089       9.18251943  T       0.00000000       0.00000000       0.00000000
O        0.04458403       6.75370667       9.16289368  T       0.00000000       0.00000000       0.00000000
O       12.25844019       4.04376273       9.16774557  T       0.00000000       0.00000000       0.00000000
O       12.27846302       6.70022972      12.16569907  T       0.00000000       0.00000000       0.00000000
O        0.00000448       1.35539672       6.10801283  F       0.00000000       0.00000000       0.00000000
O        0.00000331       4.05045002       6.10801189  F       0.00000000       0.00000000       0.00000000
O        3.05359271       4.05438459       3.02679635  F       0.00000000       0.00000000       0.00000000
O        0.00000000       9.46023072       3.02679635  F       0.00000000       0.00000000       0.00000000
O        3.05359105       4.05044320       6.10802763  F       0.00000000       0.00000000       0.00000000
O        3.05359271       1.35146153       3.02679635  F       0.00000000       0.00000000       0.00000000
O        3.05359652       1.35540103       6.10801944  F       0.00000000       0.00000000       0.00000000
O        0.00000000       4.05438459       3.02679635  F       0.00000000       0.00000000       0.00000000
O        0.00000000       1.35146153       3.02679635  F       0.00000000       0.00000000       0.00000000
Pd       7.69751694       5.39581360      12.00734267  T       0.00000000       0.00000000       0.00000000
Pd      10.75372926       5.39385718      12.00547592  T       0.00000000       0.00000000       0.00000000
Pd       0.00000000       8.10876919       1.50000000  F       0.00000000       0.00000000       0.00000000
Pd       9.21966838       8.09702767      10.75846849  T       0.00000000       0.00000000       0.00000000
Pd       1.52679635       0.00000000       3.02679635  F       0.00000000       0.00000000       0.00000000
Pd       9.16077813       2.70292306       1.50000000  F       0.00000000       0.00000000       0.00000000
Pd      10.68757448       0.00000000       3.02679635  F       0.00000000       0.00000000       0.00000000
Pd      10.73463265       5.39889830       9.13219180  T       0.00000000       0.00000000       0.00000000
Pd       1.61692102      -0.00901780      12.01441461  T       0.00000000       0.00000000       0.00000000
Pd       9.16077900       2.70292450       4.56559698  F       0.00000000       0.00000000       0.00000000
Pd      10.68756280      10.81168006       6.11657659  F       0.00000000       0.00000000       0.00000000
Pd       9.16077776       8.10875607       4.56559406  F       0.00000000       0.00000000       0.00000000
Pd       1.52678677       0.00000067       6.11658292  F       0.00000000       0.00000000       0.00000000
Pd       9.18996237       8.10842232       7.65176134  T       0.00000000       0.00000000       0.00000000
Pd       9.19184042       2.69461048       7.64947968  T       0.00000000       0.00000000       0.00000000
Pd      10.74016747      -0.00920326       9.19462856  T       0.00000000       0.00000000       0.00000000
Pd       0.00000135       2.70292705       4.56560641  F       0.00000000       0.00000000       0.00000000
Pd       1.57797295      10.80352940       9.14681502  T       0.00000000       0.00000000       0.00000000
Pd       9.22097245       2.69207223      10.75096029  T       0.00000000       0.00000000       0.00000000
Pd       6.16861636       8.09594420      10.75925323  T       0.00000000       0.00000000       0.00000000
Pd      10.76157185      10.80235495      12.13500523  T       0.00000000       0.00000000       0.00000000
Pd       0.01898856       2.69645114       7.65176535  T       0.00000000       0.00000000       0.00000000
Pd      10.68757280       5.40584816       6.11657764  F       0.00000000       0.00000000       0.00000000
Pd       9.16077813       8.10876919       1.50000000  F       0.00000000       0.00000000       0.00000000
Pd      10.68757448       5.40584612       3.02679635  F       0.00000000       0.00000000       0.00000000
Pd      12.27913082       2.69564640      10.76191440  T       0.00000000       0.00000000       0.00000000
Pd       4.62895094      -0.00711463       9.13452771  T       0.00000000       0.00000000       0.00000000
Pd       7.63397856       5.40585179       6.11657833  F       0.00000000       0.00000000       0.00000000
Pd       7.68199393       5.39944868       9.12795612  T       0.00000000       0.00000000       0.00000000
Pd       4.64640150       5.39485622      12.01908881  T       0.00000000       0.00000000       0.00000000
Pd       3.11485923       8.09702108      10.76710329  T       0.00000000       0.00000000       0.00000000
Pd       4.58038906       0.00000000       3.02679635  F       0.00000000       0.00000000       0.00000000
Pd       4.62415752       5.39983970       9.13398950  T       0.00000000       0.00000000       0.00000000
Pd       3.07795169       8.10629149       7.65226569  T       0.00000000       0.00000000       0.00000000
Pd       3.05359494       2.70292824       4.56560681  F       0.00000000       0.00000000       0.00000000
Pd       3.05359271       2.70292306       1.50000000  F       0.00000000       0.00000000       0.00000000
Pd       4.58039501       5.40584640       6.11658908  F       0.00000000       0.00000000       0.00000000
Pd       4.58040505      10.81168838       6.11658203  F       0.00000000       0.00000000       0.00000000
Pd       4.58038906       5.40584612       3.02679635  F       0.00000000       0.00000000       0.00000000
Pd       3.05359271       8.10876919       1.50000000  F       0.00000000       0.00000000       0.00000000
Pd       3.07591249       2.70017527       7.65024756  T       0.00000000       0.00000000       0.00000000
Pd       4.66164255      -0.01426858      12.01277437  T       0.00000000       0.00000000       0.00000000
Pd       3.11335508       2.69423860      10.76056731  T       0.00000000       0.00000000       0.00000000
Pd       3.05359569       8.10876742       4.56559865  F       0.00000000       0.00000000       0.00000000
Pd       6.10718542       2.70292306       1.50000000  F       0.00000000       0.00000000       0.00000000
Pd       7.63398177       0.00000000       3.02679635  F       0.00000000       0.00000000       0.00000000
Pd       1.59224822       5.39455391      12.01839471  T       0.00000000       0.00000000       0.00000000
Pd       6.12961752       8.10544565       7.64893623  T       0.00000000       0.00000000       0.00000000
Pd       0.00000079       8.10876600       4.56559869  F       0.00000000       0.00000000       0.00000000
Pd       6.10718651       8.10875952       4.56558968  F       0.00000000       0.00000000       0.00000000
Pd       1.52680247       5.40584247       6.11658534  F       0.00000000       0.00000000       0.00000000
Pd       7.63398177       5.40584612       3.02679635  F       0.00000000       0.00000000       0.00000000
Pd       6.10718542       8.10876919       1.50000000  F       0.00000000       0.00000000       0.00000000
Pd       0.01938979       8.10966208       7.65068331  T       0.00000000       0.00000000       0.00000000
Pd       7.71451677      10.79653282      12.01850599  T       0.00000000       0.00000000       0.00000000
Pd       6.17014812       2.69322092      10.75247657  T       0.00000000       0.00000000       0.00000000
Pd       1.57072447       5.39998167       9.13458146  T       0.00000000       0.00000000       0.00000000
Pd       7.68225688      -0.00925080       9.14386878  T       0.00000000       0.00000000       0.00000000
Pd       6.13047156       2.70108931       7.64695327  T       0.00000000       0.00000000       0.00000000
Pd      12.27734122       8.09144525      10.76084621  T       0.00000000       0.00000000       0.00000000
Pd       7.63399583      10.81167532       6.11657540  F       0.00000000       0.00000000       0.00000000
Pd       6.10718592       2.70292523       4.56558724  F       0.00000000       0.00000000       0.00000000
Pd       1.52679635       5.40584612       3.02679635  F       0.00000000       0.00000000       0.00000000
Pd       0.00000000       2.70292306       1.50000000  F       0.00000000       0.00000000       0.00000000
O       10.65527091      10.84388629      14.13157645  T       0.00000000       0.00000000       0.00000000
C       11.61236623      10.10614412      14.85910668  T       0.00000000       0.00000000       0.00000000
H       11.30911314      10.25750729      15.91821263  T       0.00000000       0.00000000       0.00000000
H       11.60063919       9.02000707      14.63846064  T       0.00000000       0.00000000       0.00000000
H       12.65260832      10.48480571      14.73881104  T       0.00000000       0.00000000       0.00000000
