133
Lattice="12.21437083684855 0.0 7e-16 1.7e-15 10.811692246786171 7e-16 0.0 0.0 30.687574482242482" Properties=species:S:1:pos:R:3:move_mask:L:1:momenta:R:3 adsorbate_info="_JSON {\"site\": {\"coordinates\": [3.816997829224539, 10.167133903463093, 12.046292153670471], \"connectivity\": 2, \"topology\": [10, 105], \"n_vector\": [-0.04181844459803663, 0.04771827126359636, 0.9979850621522423], \"h_vector\": [-0.7621774333812517, -0.6435173681099522, 0.07050501390119553], \"site_formula\": {\"O\": 1, \"Pd\": 1}}, \"smiles\": \"ClOC\", \"mdf\": 1.9617174304170213, \"adsorbate_formula\": \"CH3O\"}" mace_E=-698.608372022287 converged=T n_steps=34 d_min=1.9978825588002744 site_type=atop dE_rel_meV=0 original_idx=122 rank=2 E_MACE=-698.6265637435819 pbc="T T T"
O        3.02936402       6.72516924      12.18236943  T       0.00000000       0.00000000       0.00000000
O        6.07624124       1.32665561      12.15076896  T       0.00000000       0.00000000       0.00000000
O        6.08433415       4.11347828      12.15419893  T       0.00000000       0.00000000       0.00000000
O        6.08177337       1.35902738       9.17960182  T       0.00000000       0.00000000       0.00000000
O        6.09960197       4.05986498       9.15690805  T       0.00000000       0.00000000       0.00000000
O        6.10718343       1.35539432       6.10801899  F       0.00000000       0.00000000       0.00000000
O        6.10718534       4.05045008       6.10801162  F       0.00000000       0.00000000       0.00000000
O        6.10718542       1.35146153       3.02679635  F       0.00000000       0.00000000       0.00000000
O        6.10718542       4.05438459       3.02679635  F       0.00000000       0.00000000       0.00000000
O        9.11052051       9.51282922      12.17115480  T       0.00000000       0.00000000       0.00000000
O        2.98412047       9.50255819      12.15917918  T       0.00000000       0.00000000       0.00000000
O        3.04471055       6.76535793       9.16988343  T       0.00000000       0.00000000       0.00000000
O        3.02598867       9.45723892       9.17980803  T       0.00000000       0.00000000       0.00000000
O        3.05359341       6.76124998       6.10801980  F       0.00000000       0.00000000       0.00000000
O        3.05359360       9.45629444       6.10802097  F       0.00000000       0.00000000       0.00000000
O        3.05359271       6.75730765       3.02679635  F       0.00000000       0.00000000       0.00000000
O        3.05359271       9.46023072       3.02679635  F       0.00000000       0.00000000       0.00000000
O        2.98061268       1.32929767      12.14188392  T       0.00000000       0.00000000       0.00000000
O        6.10718542       9.46023072       3.02679635  F       0.00000000       0.00000000       0.00000000
O        6.10718542       6.75730765       3.02679635  F       0.00000000       0.00000000       0.00000000
O        6.10718028       9.45628983       6.10801454  F       0.00000000       0.00000000       0.00000000
O        6.10718760       6.76124043       6.10802244  F       0.00000000       0.00000000       0.00000000
O        9.15248918       6.76789263       9.17088346  T       0.00000000       0.00000000       0.00000000
O        9.13579577       9.46078058       9.16894830  T       0.00000000       0.00000000       0.00000000
O        9.16078073       6.76123572       6.10801818  F       0.00000000       0.00000000       0.00000000
O        9.16078059       9.45627785       6.10801483  F       0.00000000       0.00000000       0.00000000
O        9.16077813       6.75730765       3.02679635  F       0.00000000       0.00000000       0.00000000
O        9.16077813       9.46023072       3.02679635  F       0.00000000       0.00000000       0.00000000
O        9.11348522       1.31287340      12.16335666  T       0.00000000       0.00000000       0.00000000
O        9.13544728       4.10825757      12.16268476  T       0.00000000       0.00000000       0.00000000
O        3.02927086       4.11280124      12.16304738  T       0.00000000       0.00000000       0.00000000
O        9.13536638       1.35807310       9.16693115  T       0.00000000       0.00000000       0.00000000
O        9.16077827       1.35539012       6.10801450  F       0.00000000       0.00000000       0.00000000
O        9.16078421       4.05045012       6.10800209  F       0.00000000       0.00000000       0.00000000
O        9.16077813       1.35146153       3.02679635  F       0.00000000       0.00000000       0.00000000
O        9.16077813       4.05438459       3.02679635  F       0.00000000       0.00000000       0.00000000
O        6.08536003       6.72257479      12.17552002  T       0.00000000       0.00000000       0.00000000
O        6.07048163       9.50785403      12.16278062  T       0.00000000       0.00000000       0.00000000
O        6.10060013       6.76716565       9.16849689  T       0.00000000       0.00000000       0.00000000
O        6.08166110       9.45927606       9.17936806  T       0.00000000       0.00000000       0.00000000
O        9.15059620       4.05630608       9.16311125  T       0.00000000       0.00000000       0.00000000
O        3.02691210       1.35978258       9.18027249  T       0.00000000       0.00000000       0.00000000
O        9.13714496       6.71921448      12.17450521  T       0.00000000       0.00000000       0.00000000
O       12.16462919       9.51194068      12.16323225  T       0.00000000       0.00000000       0.00000000
O        0.00000000       6.75730765       3.02679635  F       0.00000000       0.00000000       0.00000000
O        3.04691339       4.06130494       9.16037057  T       0.00000000       0.00000000       0.00000000
O       -0.05334350       1.31508868      12.15802803  T       0.00000000       0.00000000       0.00000000
O        0.00000951       9.45630243       6.10801529  F       0.00000000       0.00000000       0.00000000
O       12.19016422       4.11082516      12.15292264  T       0.00000000       0.00000000       0.00000000
O        0.00000182       6.76124509       6.10800952  F       0.00000000       0.00000000       0.00000000
O       -0.02660918       9.45798545       9.16462591  T       0.00000000       0.00000000       0.00000000
O       -0.02640696       1.35879350       9.16328077  T       0.00000000       0.00000000       0.00000000
O       -0.01036594       6.76437369       9.16526603  T       0.00000000       0.00000000       0.00000000
O       12.20423663       4.05609592       9.15776011  T       0.00000000       0.00000000       0.00000000
O       12.18819108       6.71721262      12.16537338  T       0.00000000       0.00000000       0.00000000
O        0.00000448       1.35539672       6.10801283  F       0.00000000       0.00000000       0.00000000
O        0.00000331       4.05045002       6.10801189  F       0.00000000       0.00000000       0.00000000
O        3.05359271       4.05438459       3.02679635  F       0.00000000       0.00000000       0.00000000
O        0.00000000       9.46023072       3.02679635  F       0.00000000       0.00000000       0.00000000
O        3.05359105       4.05044320       6.10802763  F       0.00000000       0.00000000       0.00000000
O        3.05359271       1.35146153       3.02679635  F       0.00000000       0.00000000       0.00000000
O        3.05359652       1.35540103       6.10801944  F       0.00000000       0.00000000       0.00000000
O        0.00000000       4.05438459       3.02679635  F       0.00000000       0.00000000       0.00000000
O        0.00000000       1.35146153       3.02679635  F       0.00000000       0.00000000       0.00000000
Pd       7.61119166       5.41602051      12.01833753  T       0.00000000       0.00000000       0.00000000
Pd      10.66223121       5.41322116      12.01515625  T       0.00000000       0.00000000       0.00000000
Pd       0.00000000       8.10876919       1.50000000  F       0.00000000       0.00000000       0.00000000
Pd       9.13355223       8.11493558      10.76923959  T       0.00000000       0.00000000       0.00000000
Pd       1.52679635       0.00000000       3.02679635  F       0.00000000       0.00000000       0.00000000
Pd       9.16077813       2.70292306       1.50000000  F       0.00000000       0.00000000       0.00000000
Pd      10.68757448       0.00000000       3.02679635  F       0.00000000       0.00000000       0.00000000
Pd      10.67857267       5.41085596       9.13330748  T       0.00000000       0.00000000       0.00000000
Pd       1.47017516       0.00998953      12.01140137  T       0.00000000       0.00000000       0.00000000
Pd       9.16077900       2.70292450       4.56559698  F       0.00000000       0.00000000       0.00000000
Pd      10.68756280      10.81168006       6.11657659  F       0.00000000       0.00000000       0.00000000
Pd       9.16077776       8.10875607       4.56559406  F       0.00000000       0.00000000       0.00000000
Pd       1.52678677       0.00000067       6.11658292  F       0.00000000       0.00000000       0.00000000
Pd       9.15202321       8.11144624       7.65113021  T       0.00000000       0.00000000       0.00000000
Pd       9.15188565       2.70451160       7.64883959  T       0.00000000       0.00000000       0.00000000
Pd      10.66169015       0.00330071       9.13728988  T       0.00000000       0.00000000       0.00000000
Pd       0.00000135       2.70292705       4.56560641  F       0.00000000       0.00000000       0.00000000
Pd       1.49835235      10.81437884       9.14157602  T       0.00000000       0.00000000       0.00000000
Pd       9.13184158       2.71030044      10.76068868  T       0.00000000       0.00000000       0.00000000
Pd       6.08071083       8.10993335      10.76333712  T       0.00000000       0.00000000       0.00000000
Pd      10.63643757      10.81858939      12.01513575  T       0.00000000       0.00000000       0.00000000
Pd      -0.01052423       2.70410401       7.64591290  T       0.00000000       0.00000000       0.00000000
Pd      10.68757280       5.40584816       6.11657764  F       0.00000000       0.00000000       0.00000000
Pd       9.16077813       8.10876919       1.50000000  F       0.00000000       0.00000000       0.00000000
Pd      10.68757448       5.40584612       3.02679635  F       0.00000000       0.00000000       0.00000000
Pd      12.18500242       2.71153613      10.75448952  T       0.00000000       0.00000000       0.00000000
Pd       4.55300618       0.00321877       9.19043014  T       0.00000000       0.00000000       0.00000000
Pd       7.63397856       5.40585179       6.11657833  F       0.00000000       0.00000000       0.00000000
Pd       7.62774018       5.41312615       9.13636309  T       0.00000000       0.00000000       0.00000000
Pd       4.55656145       5.41833195      12.01942322  T       0.00000000       0.00000000       0.00000000
Pd       3.02032714       8.10785519      10.76571738  T       0.00000000       0.00000000       0.00000000
Pd       4.58038906       0.00000000       3.02679635  F       0.00000000       0.00000000       0.00000000
Pd       4.57443969       5.41438883       9.13698401  T       0.00000000       0.00000000       0.00000000
Pd       3.04967566       8.11295282       7.65106805  T       0.00000000       0.00000000       0.00000000
Pd       3.05359494       2.70292824       4.56560681  F       0.00000000       0.00000000       0.00000000
Pd       3.05359271       2.70292306       1.50000000  F       0.00000000       0.00000000       0.00000000
Pd       4.58039501       5.40584640       6.11658908  F       0.00000000       0.00000000       0.00000000
Pd       4.58040505      10.81168838       6.11658203  F       0.00000000       0.00000000       0.00000000
Pd       4.58038906       5.40584612       3.02679635  F       0.00000000       0.00000000       0.00000000
Pd       3.05359271       8.10876919       1.50000000  F       0.00000000       0.00000000       0.00000000
Pd       3.05167860       2.70258924       7.64948574  T       0.00000000       0.00000000       0.00000000
Pd       4.52555376       0.01354095      12.10286273  T       0.00000000       0.00000000       0.00000000
Pd       3.02165495       2.72142670      10.75320086  T       0.00000000       0.00000000       0.00000000
Pd       3.05359569       8.10876742       4.56559865  F       0.00000000       0.00000000       0.00000000
Pd       6.10718542       2.70292306       1.50000000  F       0.00000000       0.00000000       0.00000000
Pd       7.63398177       0.00000000       3.02679635  F       0.00000000       0.00000000       0.00000000
Pd       1.50426678       5.41667940      12.01697316  T       0.00000000       0.00000000       0.00000000
Pd       6.09701820       8.11293208       7.65037884  T       0.00000000       0.00000000       0.00000000
Pd       0.00000079       8.10876600       4.56559869  F       0.00000000       0.00000000       0.00000000
Pd       6.10718651       8.10875952       4.56558968  F       0.00000000       0.00000000       0.00000000
Pd       1.52680247       5.40584247       6.11658534  F       0.00000000       0.00000000       0.00000000
Pd       7.63398177       5.40584612       3.02679635  F       0.00000000       0.00000000       0.00000000
Pd       6.10718542       8.10876919       1.50000000  F       0.00000000       0.00000000       0.00000000
Pd      -0.01087050       8.10975545       7.64821729  T       0.00000000       0.00000000       0.00000000
Pd       7.58845675      10.82131495      12.01283706  T       0.00000000       0.00000000       0.00000000
Pd       6.08122801       2.71724236      10.75081358  T       0.00000000       0.00000000       0.00000000
Pd       1.51816340       5.41141152       9.13212598  T       0.00000000       0.00000000       0.00000000
Pd       7.60851070       0.00331105       9.14665421  T       0.00000000       0.00000000       0.00000000
Pd       6.09601661       2.70264036       7.64771845  T       0.00000000       0.00000000       0.00000000
Pd      12.18397301       8.11294861      10.76252301  T       0.00000000       0.00000000       0.00000000
Pd       7.63399583      10.81167532       6.11657540  F       0.00000000       0.00000000       0.00000000
Pd       6.10718592       2.70292523       4.56558724  F       0.00000000       0.00000000       0.00000000
Pd       1.52679635       5.40584612       3.02679635  F       0.00000000       0.00000000       0.00000000
Pd       0.00000000       2.70292306       1.50000000  F       0.00000000       0.00000000       0.00000000
O        4.40716047      10.92263878      14.08858917  T       0.00000000       0.00000000       0.00000000
C        4.65978124       9.72753517      14.79783276  T       0.00000000       0.00000000       0.00000000
H        4.28587468       9.94785061      15.82202866  T       0.00000000       0.00000000       0.00000000
H        4.10888636       8.85074552      14.40131510  T       0.00000000       0.00000000       0.00000000
H        5.74044336       9.48217903      14.85710081  T       0.00000000       0.00000000       0.00000000
