133
Lattice="12.21437083684855 0.0 7e-16 1.7e-15 10.811692246786171 7e-16 0.0 0.0 30.687574482242482" Properties=species:S:1:pos:R:3:move_mask:L:1:momenta:R:3 adsorbate_info="_JSON {\"site\": {\"coordinates\": [3.0535870006401247, 9.522575162045278, 12.11691126245579], \"connectivity\": 1, \"topology\": [10], \"n_vector\": [-0.07128473362654494, 0.027542187036890653, 0.997075681523232], \"h_vector\": [1.0, 0.0, 0.0], \"site_formula\": {\"O\": 1}}, \"smiles\": \"ClOC\", \"mdf\": 1.7097869690905108, \"adsorbate_formula\": \"CH3O\"}" mace_E=-697.7750914991716 converged=T n_steps=51 d_min=1.997971295137753 site_type=unknown dE_rel_meV=0 original_idx=99 rank=1 E_MACE=-698.626681115152 pbc="T T T"
O        3.02778833       6.65286958      12.16681516  T       0.00000000       0.00000000       0.00000000
O        6.11752870       1.32799162      12.14859662  T       0.00000000       0.00000000       0.00000000
O        6.10886440       4.09961912      12.15899568  T       0.00000000       0.00000000       0.00000000
O        6.09766371       1.35327335       9.15939800  T       0.00000000       0.00000000       0.00000000
O        6.09909278       4.06132926       9.15625327  T       0.00000000       0.00000000       0.00000000
O        6.10718343       1.35539432       6.10801899  F       0.00000000       0.00000000       0.00000000
O        6.10718534       4.05045008       6.10801162  F       0.00000000       0.00000000       0.00000000
O        6.10718542       1.35146153       3.02679635  F       0.00000000       0.00000000       0.00000000
O        6.10718542       4.05438459       3.02679635  F       0.00000000       0.00000000       0.00000000
O        9.15814665       9.51466502      12.17130164  T       0.00000000       0.00000000       0.00000000
O        3.06945326       9.45845073      12.34650720  T       0.00000000       0.00000000       0.00000000
O        3.03993054       6.76367201       9.17515754  T       0.00000000       0.00000000       0.00000000
O        3.04623378       9.44578320       9.19741180  T       0.00000000       0.00000000       0.00000000
O        3.05359341       6.76124998       6.10801980  F       0.00000000       0.00000000       0.00000000
O        3.05359360       9.45629444       6.10802097  F       0.00000000       0.00000000       0.00000000
O        3.05359271       6.75730765       3.02679635  F       0.00000000       0.00000000       0.00000000
O        3.05359271       9.46023072       3.02679635  F       0.00000000       0.00000000       0.00000000
O        3.04550140       1.30503391      12.19327382  T       0.00000000       0.00000000       0.00000000
O        6.10718542       9.46023072       3.02679635  F       0.00000000       0.00000000       0.00000000
O        6.10718542       6.75730765       3.02679635  F       0.00000000       0.00000000       0.00000000
O        6.10718028       9.45628983       6.10801454  F       0.00000000       0.00000000       0.00000000
O        6.10718760       6.76124043       6.10802244  F       0.00000000       0.00000000       0.00000000
O        9.15147922       6.77198947       9.17008307  T       0.00000000       0.00000000       0.00000000
O        9.15717342       9.46467197       9.16849654  T       0.00000000       0.00000000       0.00000000
O        9.16078073       6.76123572       6.10801818  F       0.00000000       0.00000000       0.00000000
O        9.16078059       9.45627785       6.10801483  F       0.00000000       0.00000000       0.00000000
O        9.16077813       6.75730765       3.02679635  F       0.00000000       0.00000000       0.00000000
O        9.16077813       9.46023072       3.02679635  F       0.00000000       0.00000000       0.00000000
O        9.16092633       1.32385450      12.15094467  T       0.00000000       0.00000000       0.00000000
O        9.14459256       4.11381242      12.15415384  T       0.00000000       0.00000000       0.00000000
O        3.04025692       4.07055542      12.18246339  T       0.00000000       0.00000000       0.00000000
O        9.15769838       1.35903317       9.16022653  T       0.00000000       0.00000000       0.00000000
O        9.16077827       1.35539012       6.10801450  F       0.00000000       0.00000000       0.00000000
O        9.16078421       4.05045012       6.10800209  F       0.00000000       0.00000000       0.00000000
O        9.16077813       1.35146153       3.02679635  F       0.00000000       0.00000000       0.00000000
O        9.16077813       4.05438459       3.02679635  F       0.00000000       0.00000000       0.00000000
O        6.08474332       6.70944063      12.16386312  T       0.00000000       0.00000000       0.00000000
O        6.12020834       9.52590051      12.17932390  T       0.00000000       0.00000000       0.00000000
O        6.08907639       6.76877757       9.17326393  T       0.00000000       0.00000000       0.00000000
O        6.10156895       9.46045273       9.17125921  T       0.00000000       0.00000000       0.00000000
O        9.14971158       4.06694503       9.15298272  T       0.00000000       0.00000000       0.00000000
O        3.04649772       1.34906069       9.16996796  T       0.00000000       0.00000000       0.00000000
O        9.14831604       6.72173205      12.16715927  T       0.00000000       0.00000000       0.00000000
O       12.19448443       9.51198610      12.19408956  T       0.00000000       0.00000000       0.00000000
O        0.00000000       6.75730765       3.02679635  F       0.00000000       0.00000000       0.00000000
O        3.04314061       4.04563453       9.17115072  T       0.00000000       0.00000000       0.00000000
O       -0.01578419       1.32785131      12.17067514  T       0.00000000       0.00000000       0.00000000
O        0.00000951       9.45630243       6.10801529  F       0.00000000       0.00000000       0.00000000
O       12.17679657       4.08751954      12.17562062  T       0.00000000       0.00000000       0.00000000
O        0.00000182       6.76124509       6.10800952  F       0.00000000       0.00000000       0.00000000
O       -0.00451892       9.45762714       9.17464393  T       0.00000000       0.00000000       0.00000000
O       -0.00078614       1.35372971       9.16317958  T       0.00000000       0.00000000       0.00000000
O       -0.00497556       6.76737148       9.17702452  T       0.00000000       0.00000000       0.00000000
O       12.19967967       4.05648862       9.16243768  T       0.00000000       0.00000000       0.00000000
O       12.20916186       6.70862331      12.18288393  T       0.00000000       0.00000000       0.00000000
O        0.00000448       1.35539672       6.10801283  F       0.00000000       0.00000000       0.00000000
O        0.00000331       4.05045002       6.10801189  F       0.00000000       0.00000000       0.00000000
O        3.05359271       4.05438459       3.02679635  F       0.00000000       0.00000000       0.00000000
O        0.00000000       9.46023072       3.02679635  F       0.00000000       0.00000000       0.00000000
O        3.05359105       4.05044320       6.10802763  F       0.00000000       0.00000000       0.00000000
O        3.05359271       1.35146153       3.02679635  F       0.00000000       0.00000000       0.00000000
O        3.05359652       1.35540103       6.10801944  F       0.00000000       0.00000000       0.00000000
O        0.00000000       4.05438459       3.02679635  F       0.00000000       0.00000000       0.00000000
O        0.00000000       1.35146153       3.02679635  F       0.00000000       0.00000000       0.00000000
Pd       7.62063189       5.41740673      12.00952815  T       0.00000000       0.00000000       0.00000000
Pd      10.67148713       5.41322175      12.01966920  T       0.00000000       0.00000000       0.00000000
Pd       0.00000000       8.10876919       1.50000000  F       0.00000000       0.00000000       0.00000000
Pd       9.15470993       8.11898488      10.76778577  T       0.00000000       0.00000000       0.00000000
Pd       1.52679635       0.00000000       3.02679635  F       0.00000000       0.00000000       0.00000000
Pd       9.16077813       2.70292306       1.50000000  F       0.00000000       0.00000000       0.00000000
Pd      10.68757448       0.00000000       3.02679635  F       0.00000000       0.00000000       0.00000000
Pd      10.67732217       5.41778352       9.13585092  T       0.00000000       0.00000000       0.00000000
Pd       1.48714342       0.03117679      12.08023214  T       0.00000000       0.00000000       0.00000000
Pd       9.16077900       2.70292450       4.56559698  F       0.00000000       0.00000000       0.00000000
Pd      10.68756280      10.81168006       6.11657659  F       0.00000000       0.00000000       0.00000000
Pd       9.16077776       8.10875607       4.56559406  F       0.00000000       0.00000000       0.00000000
Pd       1.52678677       0.00000067       6.11658292  F       0.00000000       0.00000000       0.00000000
Pd       9.15826653       8.11348884       7.65152561  T       0.00000000       0.00000000       0.00000000
Pd       9.15688548       2.70671671       7.64576796  T       0.00000000       0.00000000       0.00000000
Pd      10.68463561       0.00339244       9.13798957  T       0.00000000       0.00000000       0.00000000
Pd       0.00000135       2.70292705       4.56560641  F       0.00000000       0.00000000       0.00000000
Pd       1.52265578      10.80631524       9.14185142  T       0.00000000       0.00000000       0.00000000
Pd       9.15492408       2.71928335      10.74807598  T       0.00000000       0.00000000       0.00000000
Pd       6.09561100       8.11973948      10.77413015  T       0.00000000       0.00000000       0.00000000
Pd      10.67739673      10.82406097      12.01960651  T       0.00000000       0.00000000       0.00000000
Pd      -0.00448897       2.70355363       7.64836855  T       0.00000000       0.00000000       0.00000000
Pd      10.68757280       5.40584816       6.11657764  F       0.00000000       0.00000000       0.00000000
Pd       9.16077813       8.10876919       1.50000000  F       0.00000000       0.00000000       0.00000000
Pd      10.68757448       5.40584612       3.02679635  F       0.00000000       0.00000000       0.00000000
Pd      12.19830413       2.70795084      10.75500451  T       0.00000000       0.00000000       0.00000000
Pd       4.57175103      -0.00551537       9.14475413  T       0.00000000       0.00000000       0.00000000
Pd       7.63397856       5.40585179       6.11657833  F       0.00000000       0.00000000       0.00000000
Pd       7.62175152       5.42015294       9.13273597  T       0.00000000       0.00000000       0.00000000
Pd       4.57016197       5.38047533      12.02678186  T       0.00000000       0.00000000       0.00000000
Pd       3.04781884       8.04879413      10.79272021  T       0.00000000       0.00000000       0.00000000
Pd       4.58038906       0.00000000       3.02679635  F       0.00000000       0.00000000       0.00000000
Pd       4.56760505       5.40802860       9.14243829  T       0.00000000       0.00000000       0.00000000
Pd       3.04679264       8.11477341       7.65892900  T       0.00000000       0.00000000       0.00000000
Pd       3.05359494       2.70292824       4.56560681  F       0.00000000       0.00000000       0.00000000
Pd       3.05359271       2.70292306       1.50000000  F       0.00000000       0.00000000       0.00000000
Pd       4.58039501       5.40584640       6.11658908  F       0.00000000       0.00000000       0.00000000
Pd       4.58040505      10.81168838       6.11658203  F       0.00000000       0.00000000       0.00000000
Pd       4.58038906       5.40584612       3.02679635  F       0.00000000       0.00000000       0.00000000
Pd       3.05359271       8.10876919       1.50000000  F       0.00000000       0.00000000       0.00000000
Pd       3.04931355       2.70003708       7.65178362  T       0.00000000       0.00000000       0.00000000
Pd       4.60631329       0.03577034      12.07078325  T       0.00000000       0.00000000       0.00000000
Pd       3.04266412       2.68602963      10.77208807  T       0.00000000       0.00000000       0.00000000
Pd       3.05359569       8.10876742       4.56559865  F       0.00000000       0.00000000       0.00000000
Pd       6.10718542       2.70292306       1.50000000  F       0.00000000       0.00000000       0.00000000
Pd       7.63398177       0.00000000       3.02679635  F       0.00000000       0.00000000       0.00000000
Pd       1.49957889       5.36770824      12.03130151  T       0.00000000       0.00000000       0.00000000
Pd       6.09945853       8.11119212       7.65228535  T       0.00000000       0.00000000       0.00000000
Pd       0.00000079       8.10876600       4.56559869  F       0.00000000       0.00000000       0.00000000
Pd       6.10718651       8.10875952       4.56558968  F       0.00000000       0.00000000       0.00000000
Pd       1.52680247       5.40584247       6.11658534  F       0.00000000       0.00000000       0.00000000
Pd       7.63398177       5.40584612       3.02679635  F       0.00000000       0.00000000       0.00000000
Pd       6.10718542       8.10876919       1.50000000  F       0.00000000       0.00000000       0.00000000
Pd      -0.00131210       8.11047905       7.65416059  T       0.00000000       0.00000000       0.00000000
Pd       7.64149231      10.82682045      12.00657254  T       0.00000000       0.00000000       0.00000000
Pd       6.10435663       2.71347347      10.74458841  T       0.00000000       0.00000000       0.00000000
Pd       1.51504253       5.40546470       9.14381068  T       0.00000000       0.00000000       0.00000000
Pd       7.62883283       0.00421028       9.13592839  T       0.00000000       0.00000000       0.00000000
Pd       6.10387106       2.70392501       7.64612253  T       0.00000000       0.00000000       0.00000000
Pd      12.20812375       8.11230719      10.77957480  T       0.00000000       0.00000000       0.00000000
Pd       7.63399583      10.81167532       6.11657540  F       0.00000000       0.00000000       0.00000000
Pd       6.10718592       2.70292523       4.56558724  F       0.00000000       0.00000000       0.00000000
Pd       1.52679635       5.40584612       3.02679635  F       0.00000000       0.00000000       0.00000000
Pd       0.00000000       2.70292306       1.50000000  F       0.00000000       0.00000000       0.00000000
O        3.37630605       8.93016917      13.72489467  T       0.00000000       0.00000000       0.00000000
C        2.22432983       9.07826406      14.57584710  T       0.00000000       0.00000000       0.00000000
H        2.57852701       8.62525324      15.51583007  T       0.00000000       0.00000000       0.00000000
H        1.99005570      10.14297992      14.75712211  T       0.00000000       0.00000000       0.00000000
H        1.34726042       8.53469282      14.18918328  T       0.00000000       0.00000000       0.00000000
