133
Lattice="12.21437083684855 0.0 7e-16 1.7e-15 10.811692246786171 7e-16 0.0 0.0 30.687574482242482" Properties=species:S:1:pos:R:3:move_mask:L:1:momenta:R:3 adsorbate_info="_JSON {\"site\": {\"coordinates\": [4.0714491880986605, 8.580027590059156, 12.116891291332982], \"connectivity\": 3, \"topology\": [0, 10, 37], \"n_vector\": [0.06888588215199179, -0.11690247391441948, 0.9907515060966753], \"h_vector\": [1.3752049614725214e-05, 0.9999999998391675, 1.1512867985557526e-05], \"site_formula\": {\"O\": 3}}, \"smiles\": \"ClOC\", \"mdf\": 2.176589845957019, \"adsorbate_formula\": \"CH3O\"}" mace_E=-698.6240808731404 converged=T n_steps=84 d_min=1.996847586442416 site_type=atop dE_rel_meV=0 original_idx=126 rank=204 E_MACE=-698.5854137519723 pbc="T T T"
O        3.02340759       6.71561725      12.17851120  T       0.00000000       0.00000000       0.00000000
O        6.09963386       1.31675066      12.15293075  T       0.00000000       0.00000000       0.00000000
O        6.07652139       4.10273140      12.14743348  T       0.00000000       0.00000000       0.00000000
O        6.08458027       1.34637112       9.17317844  T       0.00000000       0.00000000       0.00000000
O        6.08234373       4.04979930       9.15969122  T       0.00000000       0.00000000       0.00000000
O        6.10718343       1.35539432       6.10801899  F       0.00000000       0.00000000       0.00000000
O        6.10718534       4.05045008       6.10801162  F       0.00000000       0.00000000       0.00000000
O        6.10718542       1.35146153       3.02679635  F       0.00000000       0.00000000       0.00000000
O        6.10718542       4.05438459       3.02679635  F       0.00000000       0.00000000       0.00000000
O        9.13995388       9.51341839      12.15468118  T       0.00000000       0.00000000       0.00000000
O        3.00822729       9.49840048      12.14650799  T       0.00000000       0.00000000       0.00000000
O        3.02790695       6.75444272       9.16359427  T       0.00000000       0.00000000       0.00000000
O        3.03053467       9.45486311       9.17522424  T       0.00000000       0.00000000       0.00000000
O        3.05359341       6.76124998       6.10801980  F       0.00000000       0.00000000       0.00000000
O        3.05359360       9.45629444       6.10802097  F       0.00000000       0.00000000       0.00000000
O        3.05359271       6.75730765       3.02679635  F       0.00000000       0.00000000       0.00000000
O        3.05359271       9.46023072       3.02679635  F       0.00000000       0.00000000       0.00000000
O        3.02035719       1.31591200      12.17148202  T       0.00000000       0.00000000       0.00000000
O        6.10718542       9.46023072       3.02679635  F       0.00000000       0.00000000       0.00000000
O        6.10718542       6.75730765       3.02679635  F       0.00000000       0.00000000       0.00000000
O        6.10718028       9.45628983       6.10801454  F       0.00000000       0.00000000       0.00000000
O        6.10718760       6.76124043       6.10802244  F       0.00000000       0.00000000       0.00000000
O        9.13474022       6.76102409       9.16334348  T       0.00000000       0.00000000       0.00000000
O        9.14069434       9.45504582       9.16391333  T       0.00000000       0.00000000       0.00000000
O        9.16078073       6.76123572       6.10801818  F       0.00000000       0.00000000       0.00000000
O        9.16078059       9.45627785       6.10801483  F       0.00000000       0.00000000       0.00000000
O        9.16077813       6.75730765       3.02679635  F       0.00000000       0.00000000       0.00000000
O        9.16077813       9.46023072       3.02679635  F       0.00000000       0.00000000       0.00000000
O        9.13953820       1.31679690      12.15953027  T       0.00000000       0.00000000       0.00000000
O        9.12820403       4.11204796      12.14642857  T       0.00000000       0.00000000       0.00000000
O        3.01753648       4.10321761      12.16170307  T       0.00000000       0.00000000       0.00000000
O        9.14132073       1.35116276       9.16094195  T       0.00000000       0.00000000       0.00000000
O        9.16077827       1.35539012       6.10801450  F       0.00000000       0.00000000       0.00000000
O        9.16078421       4.05045012       6.10800209  F       0.00000000       0.00000000       0.00000000
O        9.16077813       1.35146153       3.02679635  F       0.00000000       0.00000000       0.00000000
O        9.16077813       4.05438459       3.02679635  F       0.00000000       0.00000000       0.00000000
O        6.06902573       6.71601400      12.16800036  T       0.00000000       0.00000000       0.00000000
O        6.11083616       9.49361525      12.13248792  T       0.00000000       0.00000000       0.00000000
O        6.07677354       6.75152901       9.15544576  T       0.00000000       0.00000000       0.00000000
O        6.08360801       9.45459606       9.16894555  T       0.00000000       0.00000000       0.00000000
O        9.13680253       4.05299092       9.15970675  T       0.00000000       0.00000000       0.00000000
O        3.02977057       1.35014428       9.18328902  T       0.00000000       0.00000000       0.00000000
O        9.12502777       6.72010149      12.16973381  T       0.00000000       0.00000000       0.00000000
O       12.18825207       9.51407678      12.15356199  T       0.00000000       0.00000000       0.00000000
O        0.00000000       6.75730765       3.02679635  F       0.00000000       0.00000000       0.00000000
O        3.02265171       4.04807108       9.16825124  T       0.00000000       0.00000000       0.00000000
O       -0.02616121       1.31502334      12.16301125  T       0.00000000       0.00000000       0.00000000
O        0.00000951       9.45630243       6.10801529  F       0.00000000       0.00000000       0.00000000
O       12.17825956       4.10873373      12.15623629  T       0.00000000       0.00000000       0.00000000
O        0.00000182       6.76124509       6.10800952  F       0.00000000       0.00000000       0.00000000
O       -0.02181075       9.45579974       9.16579463  T       0.00000000       0.00000000       0.00000000
O       -0.02318395       1.35232117       9.16354313  T       0.00000000       0.00000000       0.00000000
O       -0.02694308       6.76123454       9.16525745  T       0.00000000       0.00000000       0.00000000
O       12.18544436       4.05225705       9.16278052  T       0.00000000       0.00000000       0.00000000
O       12.18168192       6.71875469      12.17061351  T       0.00000000       0.00000000       0.00000000
O        0.00000448       1.35539672       6.10801283  F       0.00000000       0.00000000       0.00000000
O        0.00000331       4.05045002       6.10801189  F       0.00000000       0.00000000       0.00000000
O        3.05359271       4.05438459       3.02679635  F       0.00000000       0.00000000       0.00000000
O        0.00000000       9.46023072       3.02679635  F       0.00000000       0.00000000       0.00000000
O        3.05359105       4.05044320       6.10802763  F       0.00000000       0.00000000       0.00000000
O        3.05359271       1.35146153       3.02679635  F       0.00000000       0.00000000       0.00000000
O        3.05359652       1.35540103       6.10801944  F       0.00000000       0.00000000       0.00000000
O        0.00000000       4.05438459       3.02679635  F       0.00000000       0.00000000       0.00000000
O        0.00000000       1.35146153       3.02679635  F       0.00000000       0.00000000       0.00000000
Pd       7.59785452       5.41450268      12.00878739  T       0.00000000       0.00000000       0.00000000
Pd      10.65354527       5.41641004      12.01289634  T       0.00000000       0.00000000       0.00000000
Pd       0.00000000       8.10876919       1.50000000  F       0.00000000       0.00000000       0.00000000
Pd       9.13562583       8.10967836      10.76191092  T       0.00000000       0.00000000       0.00000000
Pd       1.52679635       0.00000000       3.02679635  F       0.00000000       0.00000000       0.00000000
Pd       9.16077813       2.70292306       1.50000000  F       0.00000000       0.00000000       0.00000000
Pd      10.68757448       0.00000000       3.02679635  F       0.00000000       0.00000000       0.00000000
Pd      10.66068552       5.40809287       9.13405052  T       0.00000000       0.00000000       0.00000000
Pd       1.49994039       0.01022768      12.01288567  T       0.00000000       0.00000000       0.00000000
Pd       9.16077900       2.70292450       4.56559698  F       0.00000000       0.00000000       0.00000000
Pd      10.68756280      10.81168006       6.11657659  F       0.00000000       0.00000000       0.00000000
Pd       9.16077776       8.10875607       4.56559406  F       0.00000000       0.00000000       0.00000000
Pd       1.52678677       0.00000067       6.11658292  F       0.00000000       0.00000000       0.00000000
Pd       9.14858912       8.10803968       7.64814287  T       0.00000000       0.00000000       0.00000000
Pd       9.14968492       2.70197100       7.64669663  T       0.00000000       0.00000000       0.00000000
Pd      10.66624272      -0.00248549       9.13424498  T       0.00000000       0.00000000       0.00000000
Pd       0.00000135       2.70292705       4.56560641  F       0.00000000       0.00000000       0.00000000
Pd       1.50260865      10.80922602       9.14482982  T       0.00000000       0.00000000       0.00000000
Pd       9.13767665       2.70803729      10.75176339  T       0.00000000       0.00000000       0.00000000
Pd       6.08284491       8.09613816      10.74482063  T       0.00000000       0.00000000       0.00000000
Pd      10.66429320      10.82058625      12.00897950  T       0.00000000       0.00000000       0.00000000
Pd      -0.01386265       2.70247922       7.64836838  T       0.00000000       0.00000000       0.00000000
Pd      10.68757280       5.40584816       6.11657764  F       0.00000000       0.00000000       0.00000000
Pd       9.16077813       8.10876919       1.50000000  F       0.00000000       0.00000000       0.00000000
Pd      10.68757448       5.40584612       3.02679635  F       0.00000000       0.00000000       0.00000000
Pd      12.18338651       2.70751540      10.75751115  T       0.00000000       0.00000000       0.00000000
Pd       4.55628946      -0.00288704       9.18410329  T       0.00000000       0.00000000       0.00000000
Pd       7.63397856       5.40585179       6.11657833  F       0.00000000       0.00000000       0.00000000
Pd       7.60827674       5.40486043       9.13268977  T       0.00000000       0.00000000       0.00000000
Pd       4.54565752       5.40657183      12.01717116  T       0.00000000       0.00000000       0.00000000
Pd       3.02245588       8.09697946      10.75626545  T       0.00000000       0.00000000       0.00000000
Pd       4.58038906       0.00000000       3.02679635  F       0.00000000       0.00000000       0.00000000
Pd       4.55096077       5.39867393       9.13535004  T       0.00000000       0.00000000       0.00000000
Pd       3.04534257       8.10840959       7.64975433  T       0.00000000       0.00000000       0.00000000
Pd       3.05359494       2.70292824       4.56560681  F       0.00000000       0.00000000       0.00000000
Pd       3.05359271       2.70292306       1.50000000  F       0.00000000       0.00000000       0.00000000
Pd       4.58039501       5.40584640       6.11658908  F       0.00000000       0.00000000       0.00000000
Pd       4.58040505      10.81168838       6.11658203  F       0.00000000       0.00000000       0.00000000
Pd       4.58038906       5.40584612       3.02679635  F       0.00000000       0.00000000       0.00000000
Pd       3.05359271       8.10876919       1.50000000  F       0.00000000       0.00000000       0.00000000
Pd       3.04388391       2.69846883       7.65320234  T       0.00000000       0.00000000       0.00000000
Pd       4.56183579      -0.00661594      12.09951818  T       0.00000000       0.00000000       0.00000000
Pd       3.02260534       2.70242815      10.76404230  T       0.00000000       0.00000000       0.00000000
Pd       3.05359569       8.10876742       4.56559865  F       0.00000000       0.00000000       0.00000000
Pd       6.10718542       2.70292306       1.50000000  F       0.00000000       0.00000000       0.00000000
Pd       7.63398177       0.00000000       3.02679635  F       0.00000000       0.00000000       0.00000000
Pd       1.49415334       5.41165809      12.01902208  T       0.00000000       0.00000000       0.00000000
Pd       6.08864260       8.10836358       7.64602499  T       0.00000000       0.00000000       0.00000000
Pd       0.00000079       8.10876600       4.56559869  F       0.00000000       0.00000000       0.00000000
Pd       6.10718651       8.10875952       4.56558968  F       0.00000000       0.00000000       0.00000000
Pd       1.52680247       5.40584247       6.11658534  F       0.00000000       0.00000000       0.00000000
Pd       7.63398177       5.40584612       3.02679635  F       0.00000000       0.00000000       0.00000000
Pd       6.10718542       8.10876919       1.50000000  F       0.00000000       0.00000000       0.00000000
Pd      -0.01163852       8.10887064       7.64917510  T       0.00000000       0.00000000       0.00000000
Pd       7.61678290      10.82020972      12.00497054  T       0.00000000       0.00000000       0.00000000
Pd       6.08468686       2.70224524      10.74846361  T       0.00000000       0.00000000       0.00000000
Pd       1.49763453       5.40408674       9.13744843  T       0.00000000       0.00000000       0.00000000
Pd       7.61367206      -0.00348741       9.13833242  T       0.00000000       0.00000000       0.00000000
Pd       6.08985696       2.69756253       7.64811872  T       0.00000000       0.00000000       0.00000000
Pd      12.18755940       8.10909849      10.76163109  T       0.00000000       0.00000000       0.00000000
Pd       7.63399583      10.81167532       6.11657540  F       0.00000000       0.00000000       0.00000000
Pd       6.10718592       2.70292523       4.56558724  F       0.00000000       0.00000000       0.00000000
Pd       1.52679635       5.40584612       3.02679635  F       0.00000000       0.00000000       0.00000000
Pd       0.00000000       2.70292306       1.50000000  F       0.00000000       0.00000000       0.00000000
O        4.63288261      10.77159329      14.09303368  T       0.00000000       0.00000000       0.00000000
C        4.50807644       9.49336362      14.68282779  T       0.00000000       0.00000000       0.00000000
H        4.68629195       9.68143269      15.76240666  T       0.00000000       0.00000000       0.00000000
H        3.49819972       9.05312725      14.55750006  T       0.00000000       0.00000000       0.00000000
H        5.26136332       8.76541514      14.31816205  T       0.00000000       0.00000000       0.00000000
