       N       E                     dE             d eps       ncg     rms          rms(c)
DAV:   1     0.127060319554E+05    0.12706E+05   -0.82047E+05 19184   0.154E+03
DAV:   2     0.187446454370E+02   -0.12687E+05   -0.12359E+05 17840   0.450E+02
DAV:   3    -0.401719288558E+03   -0.42046E+03   -0.40479E+03 17712   0.882E+01
DAV:   4    -0.408579566073E+03   -0.68603E+01   -0.68436E+01 17552   0.117E+01
DAV:   5    -0.408785596637E+03   -0.20603E+00   -0.20600E+00 19680   0.198E+00    0.454E+01
DAV:   6    -0.386512443960E+03    0.22273E+02   -0.80383E+01 16688   0.135E+01    0.206E+01
DAV:   7    -0.396599539384E+03   -0.10087E+02   -0.39960E+01 17488   0.168E+01    0.437E+01
DAV:   8    -0.366752446951E+03    0.29847E+02   -0.36378E+01 18336   0.135E+01    0.154E+01
DAV:   9    -0.366760297682E+03   -0.78507E-02   -0.11421E+01 17056   0.802E+00    0.256E+01
DAV:  10    -0.367493037485E+03   -0.73274E+00   -0.14355E+01 18720   0.959E+00    0.288E+01
DAV:  11    -0.357850218572E+03    0.96428E+01   -0.90541E+00 16992   0.586E+00    0.116E+01
DAV:  12    -0.359967080242E+03   -0.21169E+01   -0.29741E+00 17088   0.267E+00    0.884E+00
DAV:  13    -0.363236593239E+03   -0.32695E+01   -0.34426E+00 16960   0.435E+00    0.972E+00
DAV:  14    -0.363223954108E+03    0.12639E-01   -0.60207E-01 16896   0.242E+00    0.862E+00
DAV:  15    -0.364733155285E+03   -0.15092E+01   -0.25153E-01 16912   0.871E-01    0.809E+00
DAV:  16    -0.369867167414E+03   -0.51340E+01   -0.18608E+00 16960   0.330E+00    0.999E+00
DAV:  17    -0.376121313519E+03   -0.62541E+01   -0.29954E+00 16624   0.293E+00    0.841E+00
DAV:  18    -0.377039871043E+03   -0.91856E+00   -0.43516E-01 16640   0.167E+00    0.695E+00
DAV:  19    -0.380512163283E+03   -0.34723E+01   -0.13459E+00 16528   0.225E+00    0.406E+00
DAV:  20    -0.385661069785E+03   -0.51489E+01   -0.24778E+00 16656   0.214E+00    0.305E+00
DAV:  21    -0.387522253756E+03   -0.18612E+01   -0.71687E-01 16784   0.160E+00    0.242E+00
DAV:  22    -0.389363748379E+03   -0.18415E+01   -0.78902E-01 16560   0.133E+00    0.269E+00
DAV:  23    -0.389700808242E+03   -0.33706E+00   -0.21399E-01 17008   0.108E+00    0.223E+00
DAV:  24    -0.390332445843E+03   -0.63164E+00   -0.15880E-01 16736   0.943E-01    0.171E+00
DAV:  25    -0.390957857270E+03   -0.62541E+00   -0.20018E-01 16800   0.919E-01    0.157E+00
DAV:  26    -0.391202134258E+03   -0.24428E+00   -0.10039E-01 16800   0.737E-01    0.108E+00
DAV:  27    -0.391729289451E+03   -0.52716E+00   -0.10240E-01 16848   0.704E-01    0.183E+00
DAV:  28    -0.391853908427E+03   -0.12462E+00   -0.22878E-01 16640   0.887E-01    0.189E+00
DAV:  29    -0.392010009767E+03   -0.15610E+00   -0.10705E-01 16608   0.658E-01    0.787E-01
DAV:  30    -0.392410543222E+03   -0.40053E+00   -0.20981E-02 16608   0.396E-01    0.107E+00
DAV:  31    -0.392743306167E+03   -0.33276E+00   -0.39439E-01 17312   0.114E+00    0.392E+00
DAV:  32    -0.392279068486E+03    0.46424E+00   -0.82382E-02 16800   0.552E-01    0.171E+00
DAV:  33    -0.392790286337E+03   -0.51122E+00   -0.33865E-02 16576   0.370E-01    0.295E+00
DAV:  34    -0.392841554570E+03   -0.51268E-01   -0.15674E-01 18112   0.657E-01    0.324E-01
DAV:  35    -0.393052880625E+03   -0.21133E+00   -0.10779E-02 16480   0.228E-01    0.627E-01
DAV:  36    -0.393176966678E+03   -0.12409E+00   -0.44604E-03 16368   0.184E-01    0.907E-01
DAV:  37    -0.393298752450E+03   -0.12179E+00   -0.21175E-02 17200   0.288E-01    0.275E-01
DAV:  38    -0.393404893530E+03   -0.10614E+00   -0.15024E-03 16704   0.116E-01    0.226E-01
DAV:  39    -0.393480029591E+03   -0.75136E-01   -0.18792E-02 19248   0.256E-01    0.899E-01
DAV:  40    -0.393499336641E+03   -0.19307E-01   -0.63769E-03 17104   0.152E-01    0.302E-01
DAV:  41    -0.393521914024E+03   -0.22577E-01   -0.14534E-03 16784   0.831E-02    0.568E-01
DAV:  42    -0.393529206176E+03   -0.72922E-02   -0.38208E-03 17664   0.114E-01    0.111E-01
DAV:  43    -0.393534008346E+03   -0.48022E-02   -0.44719E-04 16864   0.477E-02    0.500E-02
DAV:  44    -0.393535184053E+03   -0.11757E-02   -0.77913E-05 16848   0.249E-02    0.273E-02
DAV:  45    -0.393536214073E+03   -0.10300E-02   -0.41215E-05 16320   0.172E-02    0.422E-02
DAV:  46    -0.393536981152E+03   -0.76708E-03   -0.38771E-05 15456   0.170E-02    0.240E-02
DAV:  47    -0.393537960560E+03   -0.97941E-03   -0.40780E-05 14240   0.152E-02    0.423E-02
DAV:  48    -0.393538333166E+03   -0.37261E-03   -0.59214E-06 14496   0.760E-03    0.431E-02
DAV:  49    -0.393539184888E+03   -0.85172E-03   -0.12425E-03 17792   0.614E-02    0.230E-01
DAV:  50    -0.393539550891E+03   -0.36600E-03   -0.77649E-05 15408   0.140E-02    0.284E-01
DAV:  51    -0.393538825871E+03    0.72502E-03   -0.99172E-04 16624   0.529E-02    0.464E-02
DAV:  52    -0.393539357866E+03   -0.53200E-03   -0.52474E-04 16672   0.404E-02    0.220E-01
DAV:  53    -0.393539534749E+03   -0.17688E-03   -0.26316E-05 14016   0.950E-03    0.256E-01
DAV:  54    -0.393539536471E+03   -0.17220E-05   -0.13398E-06 12176   0.271E-03    0.254E-01
DAV:  55    -0.393539470101E+03    0.66369E-04   -0.54440E-06 10240   0.461E-03    0.235E-01
DAV:  56    -0.393539387372E+03    0.82730E-04   -0.33759E-03 18624   0.981E-02    0.210E-01
DAV:  57    -0.393540442015E+03   -0.10546E-02   -0.61823E-04 16064   0.416E-02    0.387E-01
DAV:  58    -0.393539967344E+03    0.47467E-03   -0.12007E-04 15840   0.190E-02    0.315E-01
DAV:  59    -0.393539942724E+03    0.24620E-04   -0.17608E-06 12032   0.305E-03    0.309E-01
DAV:  60    -0.393539557193E+03    0.38553E-03   -0.12729E-04 14608   0.195E-02    0.222E-01
DAV:  61    -0.393539730219E+03   -0.17303E-03   -0.21913E-05 14320   0.819E-03    0.253E-01
DAV:  62    -0.393539390508E+03    0.33971E-03   -0.17294E-04 15456   0.227E-02    0.152E-01
DAV:  63    -0.393539347591E+03    0.42917E-04   -0.22387E-05 14512   0.813E-03    0.120E-01
DAV:  64    -0.393539353898E+03   -0.63062E-05   -0.11707E-06 12256   0.250E-03    0.119E-01
DAV:  65    -0.393539404869E+03   -0.50971E-04   -0.79455E-06 10288   0.524E-03    0.141E-01
DAV:  66    -0.393539362557E+03    0.42312E-04   -0.76237E-06 10656   0.487E-03    0.120E-01
DAV:  67    -0.393539354018E+03    0.85388E-05   -0.92555E-07 10496   0.214E-03    0.112E-01
DAV:  68    -0.393539346498E+03    0.75197E-05   -0.36277E-07 10160   0.180E-03    0.106E-01
DAV:  69    -0.393539344770E+03    0.17285E-05    0.28140E-07 10112   0.106E-03    0.103E-01
DAV:  70    -0.393539317525E+03    0.27244E-04   -0.67569E-06 10576   0.468E-03    0.825E-02
DAV:  71    -0.393539265681E+03    0.51844E-04   -0.30952E-05 11872   0.965E-03    0.403E-02
DAV:  72    -0.393539282669E+03   -0.16988E-04   -0.56131E-06 13136   0.412E-03    0.241E-02
DAV:  73    -0.393539291285E+03   -0.86161E-05   -0.36449E-06 10576   0.366E-03    0.894E-03
DAV:  74    -0.393539294883E+03   -0.35977E-05    0.88842E-08 10352   0.126E-03    0.779E-03
DAV:  75    -0.393539313150E+03   -0.18267E-04   -0.22161E-05 10688   0.920E-03    0.441E-02
DAV:  76    -0.393539317714E+03   -0.45637E-05   -0.17396E-06 11232   0.244E-03    0.357E-02
DAV:  77    -0.393539322474E+03   -0.47605E-05    0.34951E-07 10064   0.969E-04    0.360E-02
DAV:  78    -0.393539316360E+03    0.61137E-05   -0.12610E-05 10096   0.644E-03    0.828E-03
DAV:  79    -0.393539322363E+03   -0.60021E-05   -0.12392E-07 10176   0.134E-03    0.123E-02
DAV:  80    -0.393539324906E+03   -0.25437E-05    0.48542E-07  9856   0.523E-04    0.122E-02
DAV:  81    -0.393539325360E+03   -0.45425E-06    0.20169E-07 10288   0.109E-03
   1 F= -.43440829E+03 E0= -.43438012E+03  d E =-.434408E+03  mag=    21.5928
