 vasp.6.4.3 19Mar24 (build Nov 27 2025 15:18:09) complex                         
 executed on              LinuxNV date 2026.06.05  16:38:37
 running   16 mpi-ranks, with    1 threads/rank, on    1 nodes
 distrk:  each k-point on   16 cores,    1 groups
 distr:  one band on NCORE=   1 cores,   16 groups
 OpenACC runtime initialized ...    0 GPUs detected


--------------------------------------------------------------------------------------------------------


 INCAR:
   SYSTEM = pddmc
   ENCUT = 520
   PREC = Accurate
   LASPH = .TRUE.
   ADDGRID = .TRUE.
   ISPIN = 2
   IVDW = 12
   EDIFF = 1e-06
   NELM = 200
   NELMIN = 5
   ALGO = Normal
   NCORE = 1
   LREAL = Auto
   LWAVE = .FALSE.
   LCHARG = .FALSE.
   LORBIT = 11
   ISYM = 0
   IBRION = 2
   NSW = 300
   ISIF = 2
   ISMEAR = 1
   SIGMA = 0.1
   EDIFFG = -0.03
   LDIPOL = .TRUE.
   IDIPOL = 3
   KSPACING = 0.25

 POTCAR:    PAW_PBE Pd_pv 28Jan2005               
 -----------------------------------------------------------------------------
|                                                                             |
|           W    W    AA    RRRRR   N    N  II  N    N   GGGG   !!!           |
|           W    W   A  A   R    R  NN   N  II  NN   N  G    G  !!!           |
|           W    W  A    A  R    R  N N  N  II  N N  N  G       !!!           |
|           W WW W  AAAAAA  RRRRR   N  N N  II  N  N N  G  GGG   !            |
|           WW  WW  A    A  R   R   N   NN  II  N   NN  G    G                |
|           W    W  A    A  R    R  N    N  II  N    N   GGGG   !!!           |
|                                                                             |
|     You use a magnetic or noncollinear calculation, but did not specify     |
|     the initial magnetic moment with the MAGMOM tag. Note that a            |
|     default of 1 will be used for all atoms. This ferromagnetic setup       |
|     may break the symmetry of the crystal, in particular it may rule        |
|     out finding an antiferromagnetic solution. Thence, we recommend         |
|     setting the initial magnetic moment manually or verifying carefully     |
|     that this magnetic setup is desired.                                    |
|                                                                             |
 -----------------------------------------------------------------------------

 POTCAR:    PAW_PBE Pd_pv 28Jan2005               
   SHA256 =  3ce661545bbde58da9a95410dea32907db2844916708bcd35bbe03ee66324d7f Pd_pv/POTCAR          
   COPYR  = (c) Copyright 28Jan2005 Georg Kresse                                                    
   COPYR  = This file is part of the software VASP. Any use, copying, and all other rights are regul
   COPYR  = If you do not have a valid VASP license, you may not use, copy or distribute this file. 
   VRHFIN =Pd: 4p5s4d                                                                               
   LEXCH  = PE                                                                                      
   EATOM  =  2621.5550 eV,  192.6789 Ry                                                             
                                                                                                    
   TITEL  = PAW_PBE Pd_pv 28Jan2005                                                                 
   LULTRA =        F    use ultrasoft PP ?                                                          
   IUNSCR =        1    unscreen: 0-lin 1-nonlin 2-no                                               
   RPACOR =    2.250    partial core radius                                                         
   POMASS =  106.420; ZVAL   =   16.000    mass and valenz                                          
   RCORE  =    2.400    outmost cutoff radius                                                       
   RWIGS  =    2.300; RWIGS  =    1.217    wigner-seitz radius (au A)                               
   ENMAX  =  250.925; ENMIN  =  188.194 eV                                                          
   ICORE  =        3    local potential                                                             
   LCOR   =        T    correct aug charges                                                         
   LPAW   =        T    paw PP                                                                      
   EAUG   =  473.067                                                                                
   DEXC   =    0.000                                                                                
   RMAX   =    2.449    core radius for proj-oper                                                   
   RAUG   =    1.300    factor for augmentation sphere                                              
   RDEP   =    2.405    radius for radial grids                                                     
   RDEPT  =    1.966    core radius for aug-charge                                                  
                                                                                                    
   Atomic configuration                                                                             
   11 entries                                                                                       
     n  l   j            E        occ.                                                              
     1  0  0.50    -24164.6632   2.0000                                                             
     2  0  0.50     -3530.9218   2.0000                                                             
     2  1  1.50     -3165.6822   6.0000                                                             
     3  0  0.50      -639.4578   2.0000                                                             
     3  1  1.50      -519.4532   6.0000                                                             
     3  2  2.50      -328.9758  10.0000                                                             
     4  0  0.50       -88.7014   2.0000                                                             
     4  1  1.50       -54.4541   6.0000                                                             
     4  2  2.50        -6.6878   9.0000                                                             
     5  0  0.50        -4.3543   1.0000                                                             
     4  3  2.50        -1.3606   0.0000                                                             
   Description                                                                                      
     l       E           TYP  RCUT    TYP  RCUT                                                     
     1    -54.4540524     23  2.100                                                                 
     1      4.0817478     23  2.100                                                                 
     2     -6.6878326     23  2.400                                                                 
     2     -4.0817478     23  2.400                                                                 
     0     -4.3542962     23  2.400                                                                 
     0     13.6058260     23  2.400                                                                 
     3     -5.4423304     23  2.400                                                                 
  local pseudopotential read in
  partial core-charges read in
  partial kinetic energy density read in
  atomic valenz-charges read in
  non local Contribution for L=            1  read in
    real space projection operators read in
  non local Contribution for L=            1  read in
    real space projection operators read in
  non local Contribution for L=            2  read in
    real space projection operators read in
  non local Contribution for L=            2  read in
    real space projection operators read in
  non local Contribution for L=            0  read in
    real space projection operators read in
  non local Contribution for L=            0  read in
    real space projection operators read in
    PAW grid and wavefunctions read in
 
   number of l-projection  operators is LMAX  =            6
   number of lm-projection operators is LMMAX =           18
 
 Optimization of the real space projectors (new method)

 maximal supplied QI-value         = 15.68
 optimisation between [QCUT,QGAM] = [ 11.61, 23.21] = [ 37.72,150.90] Ry 
 Optimized for a Real-space Cutoff    1.40 Angstroem

   l    n(q)    QCUT    max X(q) W(low)/X(q) W(high)/X(q)  e(spline) 
   1      9    11.607     3.357    0.46E-04    0.85E-04    0.15E-06
   1      9    11.607     4.938    0.68E-04    0.21E-03    0.32E-06
   2      9    11.607    23.508    0.23E-03    0.17E-03    0.29E-06
   2      9    11.607    23.349    0.22E-03    0.16E-03    0.28E-06
   0     10    11.607    49.920    0.59E-04    0.74E-04    0.17E-06
   0     10    11.607    23.997    0.53E-04    0.66E-04    0.15E-06
  PAW_PBE Pd_pv 28Jan2005               :
 energy of atom  1       EATOM=-2621.5550
 kinetic energy error for atom=    0.0088 (will be added to EATOM!!)
 
 
 POSCAR: Pd
  positions in cartesian coordinates
  No initial velocities read in
 IVDW         = 12
 VDW_S6       =    1.0000
 VDW_S8       =    0.7875
 VDW_A1       =    0.4289
 VDW_A2       =    4.4407
 VDW_RADIUS   =   50.2022 A
 VDW_CNRADIUS =   21.1671 A


 exchange-correlation table for PE
   RHO(1)=    0.500       N(1)  =     2000
   RHO(2)=  100.500       N(2)  =     4000
 


--------------------------------------------------------------------------------------------------------


 ion  position               nearest neighbor table
   1  0.000  0.000  0.054-  42 2.75  60 2.75  68 2.75  71 2.75  57 2.75  46 2.75  54 2.75  55 2.75

   2  0.375  0.625  0.264-  13 2.75  14 2.75  17 2.75  19 2.75  22 2.75  25 2.75  26 2.75  79 2.75
                             6 2.75   9 2.75   3 2.75  21 2.75
   3  0.125  0.625  0.264-  14 2.75  15 2.75  19 2.75  22 2.75  23 2.75  26 2.75  27 2.75  39 2.75
                            20 2.75   7 2.75  29 2.75   2 2.75
   4  0.875  0.375  0.264-  16 2.75  24 2.75  27 2.75  28 2.75  31 2.75  39 2.75  40 2.75  63 2.75
                            20 2.75   7 2.75   8 2.75   5 2.75
   5  0.625  0.375  0.264-  16 2.75  17 2.75  24 2.75  25 2.75  28 2.75  30 2.75  40 2.75  41 2.75
                             4 2.75   6 2.75   9 2.75  10 2.75
   6  0.375  0.375  0.264-  17 2.75  19 2.75  25 2.75  26 2.75  30 2.75  38 2.75  41 2.75  62 2.75
                            18 2.75   5 2.75   7 2.75   2 2.75
   7  0.125  0.375  0.264-  19 2.75  26 2.75  27 2.75  31 2.75  38 2.75  39 2.75  62 2.75  63 2.75
                             3 2.75   4 2.75   6 2.75  11 2.75
   8  0.875  0.125  0.264-  28 2.75  31 2.75  32 2.75  35 2.75  40 2.75  63 2.75  64 2.75  67 2.75
                            10 2.75  11 2.75   4 2.75  36 2.75
   9  0.625  0.625  0.264-  12 2.75  13 2.75  16 2.75  17 2.75  24 2.75  25 2.75  79 2.75  80 2.75
                             5 2.75  37 2.75  20 2.75   2 2.75
  10  0.625  0.125  0.264-  28 2.75  30 2.75  32 2.75  33 2.75  40 2.75  41 2.75  64 2.75  65 2.75
                             8 2.75  18 2.75   5 2.75  37 2.75
  11  0.125  0.125  0.264-  31 2.75  34 2.75  35 2.75  38 2.75  62 2.75  63 2.75  66 2.75  67 2.75
                             7 2.75   8 2.75  18 2.75  29 2.75
  12  0.750  0.750  0.194-   9 2.75  20 2.75  36 2.75  37 2.75  13 2.75  15 2.75  16 2.75  64 2.75
                            68 2.75  69 2.75  72 2.75  73 2.75
  13  0.500  0.750  0.194-   2 2.75   9 2.75  21 2.75  37 2.75  17 2.75  12 2.75  14 2.75  65 2.75
                            69 2.75  70 2.75  73 2.75  74 2.75
  14  0.250  0.750  0.194-   2 2.75   3 2.75  21 2.75  29 2.75  19 2.75  13 2.75  15 2.75  66 2.75
                            70 2.75  71 2.75  74 2.75  75 2.75
  15  0.000  0.750  0.194-   3 2.75  20 2.75  29 2.75  36 2.75  14 2.75  12 2.75  39 2.75  67 2.75
                            68 2.75  71 2.75  72 2.75  75 2.75
  16  0.750  0.500  0.194-   4 2.75   5 2.75   9 2.75  20 2.75  17 2.75  12 2.75  39 2.75  40 2.75
                            72 2.75  73 2.75  76 2.75  77 2.75
  17  0.500  0.500  0.194-   2 2.75   5 2.75   6 2.75   9 2.75  13 2.75  16 2.75  19 2.75  41 2.75
                            73 2.75  74 2.75  77 2.75  78 2.75
  18  0.375  0.125  0.264-  30 2.75  33 2.75  34 2.75  38 2.75  41 2.75  62 2.75  65 2.75  66 2.75
                             6 2.75  10 2.75  11 2.75  21 2.75
  19  0.250  0.500  0.194-   2 2.75   3 2.75   6 2.75   7 2.75  14 2.75  17 2.75  39 2.75  62 2.75
                            61 2.75  74 2.75  75 2.75  78 2.75
  20  0.875  0.625  0.264-  12 2.75  15 2.75  16 2.75  23 2.75  24 2.75  27 2.75  39 2.75  80 2.75
                             9 2.75  36 2.75   3 2.75   4 2.75
  21  0.375  0.875  0.264-  13 2.75  14 2.75  22 2.75  33 2.75  34 2.75  65 2.75  66 2.75  79 2.75
                            37 2.75  29 2.75  18 2.75   2 2.75
  22  0.250  0.750  0.334-   2 2.75   3 2.75  21 2.75  29 2.75  26 2.75  23 2.75  34 2.75  79 2.75

  23  0.000  0.750  0.334-   3 2.75  20 2.75  29 2.75  36 2.75  22 2.75  35 2.75  27 2.75  80 2.75

  24  0.750  0.500  0.334-   4 2.75   5 2.75   9 2.75  20 2.75  25 2.75  27 2.75  28 2.75  80 2.75

  25  0.500  0.500  0.334-   2 2.75   5 2.75   6 2.75   9 2.75  24 2.75  26 2.75  30 2.75  79 2.75

  26  0.250  0.500  0.334-   2 2.75   3 2.75   6 2.75   7 2.75  22 2.75  25 2.75  27 2.75  38 2.75

  27  0.000  0.500  0.334-   3 2.75   4 2.75   7 2.75  20 2.75  23 2.75  24 2.75  26 2.75  31 2.75

  28  0.750  0.250  0.334-   4 2.75   5 2.75   8 2.75  10 2.75  24 2.75  30 2.75  31 2.75  32 2.75

  29  0.125  0.875  0.264-  14 2.75  15 2.75  22 2.75  23 2.75  34 2.75  35 2.75  66 2.75  67 2.75
                             3 2.75  36 2.75  11 2.75  21 2.75
  30  0.500  0.250  0.334-   5 2.75   6 2.75  10 2.75  18 2.75  25 2.75  28 2.75  33 2.75  38 2.75

  31  0.000  0.250  0.334-   4 2.75   7 2.75   8 2.75  11 2.75  27 2.75  28 2.75  35 2.75  38 2.75

  32  0.750  0.000  0.334-   8 2.75  10 2.75  36 2.75  37 2.75  35 2.75  28 2.75  33 2.75  80 2.75

  33  0.500  0.000  0.334-  10 2.75  18 2.75  21 2.75  37 2.75  32 2.75  34 2.75  30 2.75  79 2.75

  34  0.250  0.000  0.334-  11 2.75  18 2.75  21 2.75  29 2.75  22 2.75  33 2.75  35 2.75  38 2.75

  35  0.000  0.000  0.334-   8 2.75  11 2.75  29 2.75  36 2.75  31 2.75  32 2.75  34 2.75  23 2.75

  36  0.875  0.875  0.264-  12 2.75  15 2.75  23 2.75  32 2.75  35 2.75  64 2.75  67 2.75  80 2.75
                            37 2.75  29 2.75  20 2.75   8 2.75
  37  0.625  0.875  0.264-  12 2.75  13 2.75  32 2.75  33 2.75  64 2.75  65 2.75  79 2.75  80 2.75
                            21 2.75   9 2.75  10 2.75  36 2.75
  38  0.250  0.250  0.334-   6 2.75   7 2.75  11 2.75  18 2.75  26 2.75  30 2.75  31 2.75  34 2.75

  39  0.000  0.500  0.194-   3 2.75   4 2.75   7 2.75  20 2.75  16 2.75  19 2.75  15 2.75  63 2.75
                            61 2.75  72 2.75  75 2.75  76 2.75
  40  0.750  0.250  0.194-   4 2.75   5 2.75   8 2.75  10 2.75  16 2.75  41 2.75  63 2.75  64 2.75
                            59 2.75  60 2.75  76 2.75  77 2.75
  41  0.500  0.250  0.194-   5 2.75   6 2.75  10 2.75  18 2.75  17 2.75  40 2.75  62 2.75  65 2.75
                            49 2.75  59 2.75  77 2.75  78 2.75
  42  0.125  0.125  0.124-   1 2.75  53 2.75  54 2.75  57 2.75  49 2.75  60 2.75  61 2.75  71 2.75
                            63 2.75  66 2.75  67 2.75  62 2.75
  43  0.750  0.750  0.054-  68 2.75  69 2.75  72 2.75  73 2.75  44 2.75  46 2.75  47 2.75  55 2.75

  44  0.500  0.750  0.054-  69 2.75  70 2.75  73 2.75  74 2.75  43 2.75  45 2.75  48 2.75  56 2.75

  45  0.250  0.750  0.054-  70 2.75  71 2.75  74 2.75  75 2.75  44 2.75  46 2.75  50 2.75  57 2.75

  46  0.000  0.750  0.054-  68 2.75  71 2.75  72 2.75  75 2.75   1 2.75  43 2.75  45 2.75  58 2.75

  47  0.750  0.500  0.054-  72 2.75  73 2.75  76 2.75  77 2.75  43 2.75  48 2.75  51 2.75  58 2.75

  48  0.500  0.500  0.054-  73 2.75  74 2.75  77 2.75  78 2.75  44 2.75  47 2.75  50 2.75  52 2.75

  49  0.375  0.125  0.124-  52 2.75  53 2.75  56 2.75  57 2.75  42 2.75  59 2.75  70 2.75  78 2.75
                            65 2.75  66 2.75  41 2.75  62 2.75
  50  0.250  0.500  0.054-  61 2.75  74 2.75  75 2.75  78 2.75  45 2.75  48 2.75  53 2.75  58 2.75

  51  0.750  0.250  0.054-  59 2.75  60 2.75  76 2.75  77 2.75  47 2.75  52 2.75  54 2.75  55 2.75

  52  0.500  0.250  0.054-  49 2.75  59 2.75  77 2.75  78 2.75  56 2.75  48 2.75  51 2.75  53 2.75

  53  0.250  0.250  0.054-  42 2.75  49 2.75  61 2.75  78 2.75  54 2.75  57 2.75  50 2.75  52 2.75

  54  0.000  0.250  0.054-  42 2.75  60 2.75  61 2.75  76 2.75  58 2.75   1 2.75  51 2.75  53 2.75

  55  0.750  0.000  0.054-  59 2.75  60 2.75  68 2.75  69 2.75   1 2.75  43 2.75  51 2.75  56 2.75

  56  0.500  0.000  0.054-  49 2.75  59 2.75  69 2.75  70 2.75  57 2.75  44 2.75  52 2.75  55 2.75

  57  0.250  0.000  0.054-  42 2.75  49 2.75  70 2.75  71 2.75  53 2.75  56 2.75  45 2.75   1 2.75

  58  0.000  0.500  0.054-  61 2.75  72 2.75  75 2.75  76 2.75  46 2.75  47 2.75  50 2.75  54 2.75

  59  0.625  0.125  0.124-  51 2.75  52 2.75  55 2.75  56 2.75  49 2.75  60 2.75  69 2.75  77 2.75
                            64 2.75  65 2.75  40 2.75  41 2.75
  60  0.875  0.125  0.124-   1 2.75  51 2.75  54 2.75  55 2.75  42 2.75  59 2.75  68 2.75  76 2.75
                            64 2.75  67 2.75  40 2.75  63 2.75
  61  0.125  0.375  0.124-  50 2.75  53 2.75  54 2.75  58 2.75  42 2.75  75 2.75  76 2.75  78 2.75
                            63 2.75  39 2.75  19 2.75  62 2.75
  62  0.250  0.250  0.194-   6 2.75   7 2.75  11 2.75  18 2.75  19 2.75  41 2.75  63 2.75  66 2.75
                            61 2.75  42 2.75  49 2.75  78 2.75
  63  0.000  0.250  0.194-   4 2.75   7 2.75   8 2.75  11 2.75  39 2.75  40 2.75  62 2.75  67 2.75
                            61 2.75  42 2.75  60 2.75  76 2.75
  64  0.750  0.000  0.194-   8 2.75  10 2.75  36 2.75  37 2.75  12 2.75  40 2.75  65 2.75  67 2.75
                            59 2.75  60 2.75  68 2.75  69 2.75
  65  0.500  0.000  0.194-  10 2.75  18 2.75  21 2.75  37 2.75  13 2.75  41 2.75  64 2.75  66 2.75
                            49 2.75  59 2.75  69 2.75  70 2.75
  66  0.250  0.000  0.194-  11 2.75  18 2.75  21 2.75  29 2.75  14 2.75  62 2.75  65 2.75  67 2.75
                            49 2.75  42 2.75  70 2.75  71 2.75
  67  0.000  0.000  0.194-   8 2.75  11 2.75  29 2.75  36 2.75  15 2.75  63 2.75  64 2.75  66 2.75
                            60 2.75  42 2.75  68 2.75  71 2.75
  68  0.875  0.875  0.124-   1 2.75  43 2.75  46 2.75  55 2.75  60 2.75  69 2.75  71 2.75  72 2.75
                            67 2.75  12 2.75  15 2.75  64 2.75
  69  0.625  0.875  0.124-  43 2.75  44 2.75  55 2.75  56 2.75  59 2.75  68 2.75  70 2.75  73 2.75
                            65 2.75  13 2.75  12 2.75  64 2.75
  70  0.375  0.875  0.124-  44 2.75  45 2.75  56 2.75  57 2.75  49 2.75  69 2.75  71 2.75  74 2.75
                            66 2.75  14 2.75  13 2.75  65 2.75
  71  0.125  0.875  0.124-   1 2.75  45 2.75  46 2.75  57 2.75  42 2.75  68 2.75  70 2.75  75 2.75
                            67 2.75  14 2.75  15 2.75  66 2.75
  72  0.875  0.625  0.124-  43 2.75  46 2.75  47 2.75  58 2.75  68 2.75  73 2.75  75 2.75  76 2.75
                            12 2.75  15 2.75  16 2.75  39 2.75
  73  0.625  0.625  0.124-  43 2.75  44 2.75  47 2.75  48 2.75  69 2.75  72 2.75  74 2.75  77 2.75
                            12 2.75  13 2.75  16 2.75  17 2.75
  74  0.375  0.625  0.124-  44 2.75  45 2.75  48 2.75  50 2.75  70 2.75  73 2.75  75 2.75  78 2.75
                            13 2.75  14 2.75  17 2.75  19 2.75
  75  0.125  0.625  0.124-  45 2.75  46 2.75  50 2.75  58 2.75  61 2.75  71 2.75  72 2.75  74 2.75
                            14 2.75  15 2.75  19 2.75  39 2.75
  76  0.875  0.375  0.124-  47 2.75  51 2.75  54 2.75  58 2.75  60 2.75  61 2.75  72 2.75  77 2.75
                            40 2.75  63 2.75  16 2.75  39 2.75
  77  0.625  0.375  0.124-  47 2.75  48 2.75  51 2.75  52 2.75  59 2.75  73 2.75  76 2.75  78 2.75
                            16 2.75  17 2.75  40 2.75  41 2.75
  78  0.375  0.375  0.124-  48 2.75  50 2.75  52 2.75  53 2.75  49 2.75  61 2.75  74 2.75  77 2.75
                            41 2.75  62 2.75  17 2.75  19 2.75
  79  0.500  0.750  0.334-   2 2.75   9 2.75  21 2.75  37 2.75  25 2.75  33 2.75  22 2.75  80 2.75

  80  0.750  0.750  0.334-   9 2.75  20 2.75  36 2.75  37 2.75  32 2.75  23 2.75  24 2.75  79 2.75

 

IMPORTANT INFORMATION: All symmetrisations will be switched off!
NOSYMM: (Re-)initialisation of all symmetry stuff for point group C_1.


----------------------------------------------------------------------------------------

                                     Primitive cell                                     

  volume of cell :    3364.4278

  direct lattice vectors                    reciprocal lattice vectors
    11.004690438  0.000000000  0.000000000     0.090870343  0.000000000  0.000000000
     0.000000000 11.004690438  0.000000000     0.000000000  0.090870343  0.000000000
     0.000000000  0.000000000 27.781491233     0.000000000  0.000000000  0.035995188

  length of vectors
    11.004690438 11.004690438 27.781491233     0.090870343  0.090870343  0.035995188

  position of ions in fractional coordinates (direct lattice)
     0.000000000  0.000000000  0.053992782
     0.375000000  0.625000000  0.264064962
     0.125000000  0.625000000  0.264064962
     0.875000000  0.375000000  0.264064962
     0.625000000  0.375000000  0.264064962
     0.375000000  0.375000000  0.264064962
     0.125000000  0.375000000  0.264064962
     0.875000000  0.125000000  0.264064962
     0.625000000  0.625000000  0.264064962
     0.625000000  0.125000000  0.264064962
     0.125000000  0.125000000  0.264064962
     0.750000000  0.750000000  0.194040902
     0.500000000  0.750000000  0.194040902
     0.250000000  0.750000000  0.194040902
     0.000000000  0.750000000  0.194040902
     0.750000000  0.500000000  0.194040902
     0.500000000  0.500000000  0.194040902
     0.375000000  0.125000000  0.264064962
     0.250000000  0.500000000  0.194040902
     0.875000000  0.625000000  0.264064962
     0.375000000  0.875000000  0.264064962
     0.250000000  0.750000000  0.334089022
     0.000000000  0.750000000  0.334089022
     0.750000000  0.500000000  0.334089022
     0.500000000  0.500000000  0.334089022
     0.250000000  0.500000000  0.334089022
     0.000000000  0.500000000  0.334089022
     0.750000000  0.250000000  0.334089022
     0.125000000  0.875000000  0.264064962
     0.500000000  0.250000000  0.334089022
     0.000000000  0.250000000  0.334089022
     0.750000000  0.000000000  0.334089022
     0.500000000  0.000000000  0.334089022
     0.250000000  0.000000000  0.334089022
     0.000000000  0.000000000  0.334089022
     0.875000000  0.875000000  0.264064962
     0.625000000  0.875000000  0.264064962
     0.250000000  0.250000000  0.334089022
     0.000000000  0.500000000  0.194040902
     0.750000000  0.250000000  0.194040902
     0.500000000  0.250000000  0.194040902
     0.125000000  0.125000000  0.124016842
     0.750000000  0.750000000  0.053992782
     0.500000000  0.750000000  0.053992782
     0.250000000  0.750000000  0.053992782
     0.000000000  0.750000000  0.053992782
     0.750000000  0.500000000  0.053992782
     0.500000000  0.500000000  0.053992782
     0.375000000  0.125000000  0.124016842
     0.250000000  0.500000000  0.053992782
     0.750000000  0.250000000  0.053992782
     0.500000000  0.250000000  0.053992782
     0.250000000  0.250000000  0.053992782
     0.000000000  0.250000000  0.053992782
     0.750000000  0.000000000  0.053992782
     0.500000000  0.000000000  0.053992782
     0.250000000  0.000000000  0.053992782
     0.000000000  0.500000000  0.053992782
     0.625000000  0.125000000  0.124016842
     0.875000000  0.125000000  0.124016842
     0.125000000  0.375000000  0.124016842
     0.250000000  0.250000000  0.194040902
     0.000000000  0.250000000  0.194040902
     0.750000000  0.000000000  0.194040902
     0.500000000  0.000000000  0.194040902
     0.250000000  0.000000000  0.194040902
     0.000000000  0.000000000  0.194040902
     0.875000000  0.875000000  0.124016842
     0.625000000  0.875000000  0.124016842
     0.375000000  0.875000000  0.124016842
     0.125000000  0.875000000  0.124016842
     0.875000000  0.625000000  0.124016842
     0.625000000  0.625000000  0.124016842
     0.375000000  0.625000000  0.124016842
     0.125000000  0.625000000  0.124016842
     0.875000000  0.375000000  0.124016842
     0.625000000  0.375000000  0.124016842
     0.375000000  0.375000000  0.124016842
     0.500000000  0.750000000  0.334089022
     0.750000000  0.750000000  0.334089022

  ion indices of the primitive-cell ions
   primitive index   ion index
                 1           1
                 2           2
                 3           3
                 4           4
                 5           5
                 6           6
                 7           7
                 8           8
                 9           9
                10          10
                11          11
                12          12
                13          13
                14          14
                15          15
                16          16
                17          17
                18          18
                19          19
                20          20
                21          21
                22          22
                23          23
                24          24
                25          25
                26          26
                27          27
                28          28
                29          29
                30          30
                31          31
                32          32
                33          33
                34          34
                35          35
                36          36
                37          37
                38          38
                39          39
                40          40
                41          41
                42          42
                43          43
                44          44
                45          45
                46          46
                47          47
                48          48
                49          49
                50          50
                51          51
                52          52
                53          53
                54          54
                55          55
                56          56
                57          57
                58          58
                59          59
                60          60
                61          61
                62          62
                63          63
                64          64
                65          65
                66          66
                67          67
                68          68
                69          69
                70          70
                71          71
                72          72
                73          73
                74          74
                75          75
                76          76
                77          77
                78          78
                79          79
                80          80

----------------------------------------------------------------------------------------

 
 -----------------------------------------------------------------------------
|                                                                             |
|           W    W    AA    RRRRR   N    N  II  N    N   GGGG   !!!           |
|           W    W   A  A   R    R  NN   N  II  NN   N  G    G  !!!           |
|           W    W  A    A  R    R  N N  N  II  N N  N  G       !!!           |
|           W WW W  AAAAAA  RRRRR   N  N N  II  N  N N  G  GGG   !            |
|           WW  WW  A    A  R   R   N   NN  II  N   NN  G    G                |
|           W    W  A    A  R    R  N    N  II  N    N   GGGG   !!!           |
|                                                                             |
|     The requested file  could not be found or opened for reading            |
|     k-point information. Automatic k-point generation is used as a          |
|     fallback, which may lead to unwanted results.                           |
|                                                                             |
 -----------------------------------------------------------------------------

 

Automatic generation of k-mesh.
 Grid dimensions derived from KSPACING:
 generate k-points for:    3    3    1

 Generating k-lattice:

  Cartesian coordinates                     Fractional coordinates (reciprocal lattice)
     0.030290114  0.000000000  0.000000000     0.333333333  0.000000000  0.000000000
     0.000000000  0.030290114  0.000000000     0.000000000  0.333333333  0.000000000
     0.000000000  0.000000000  0.035995188     0.000000000  0.000000000  1.000000000

  Length of vectors
     0.030290114  0.030290114  0.035995188

  Shift w.r.t. Gamma in fractional coordinates (k-lattice)
     0.000000000  0.000000000  0.000000000

 
 Subroutine IBZKPT returns following result:
 ===========================================
 
 Found      5 irreducible k-points:
 
 Following reciprocal coordinates:
            Coordinates               Weight
  0.000000  0.000000  0.000000      1.000000
  0.333333  0.000000  0.000000      2.000000
  0.000000  0.333333  0.000000      2.000000
  0.333333  0.333333  0.000000      2.000000
 -0.333333  0.333333  0.000000      2.000000
 
 Following cartesian coordinates:
            Coordinates               Weight
  0.000000  0.000000  0.000000      1.000000
  0.030290  0.000000  0.000000      2.000000
  0.000000  0.030290  0.000000      2.000000
  0.030290  0.030290  0.000000      2.000000
 -0.030290  0.030290  0.000000      2.000000
 


--------------------------------------------------------------------------------------------------------




 Dimension of arrays:
   k-points           NKPTS =      5   k-points in BZ     NKDIM =      5   number of bands    NBANDS=    816
   number of dos      NEDOS =    301   number of ions     NIONS =     80
   non local maximal  LDIM  =      6   non local SUM 2l+1 LMDIM =     18
   total plane-waves  NPLWV = ******
   max r-space proj   IRMAX =   5151   max aug-charges    IRDMAX= 141239
   dimension x,y,z NGX =    84 NGY =   84 NGZ =  210
   dimension x,y,z NGXF=   168 NGYF=  168 NGZF=  420
   support grid    NGXF=   336 NGYF=  336 NGZF=  840
   ions per type =              80
   NGX,Y,Z   is equivalent  to a cutoff of  12.69, 12.69, 12.57 a.u.
   NGXF,Y,Z  is equivalent  to a cutoff of  25.38, 25.38, 25.13 a.u.

 SYSTEM =  pddmc                                   
 POSCAR =  Pd                                      

 Startparameter for this run:
   NWRITE =      2    write-flag & timer
   PREC   = accura    normal or accurate (medium, high low for compatibility)
   ISTART =      0    job   : 0-new  1-cont  2-samecut
   ICHARG =      2    charge: 1-file 2-atom 10-const
   ISPIN  =      2    spin polarized calculation?
   LNONCOLLINEAR =      F non collinear calculations
   LSORBIT =      F    spin-orbit coupling
   INIWAV =      1    electr: 0-lowe 1-rand  2-diag
   LASPH  =      T    aspherical Exc in radial PAW
 Electronic Relaxation 1
   ENCUT  =  520.0 eV  38.22 Ry    6.18 a.u.  20.46 20.46 51.66*2*pi/ulx,y,z
   ENINI  =  520.0     initial cutoff
   ENAUG  =  473.1 eV  augmentation charge cutoff
   NELM   =    200;   NELMIN=  5; NELMDL= -5     # of ELM steps 
   EDIFF  = 0.1E-05   stopping-criterion for ELM
   LREAL  =      T    real-space projection
   NLSPLINE    = F    spline interpolate recip. space projectors
   LCOMPAT=      F    compatible to vasp.4.4
   GGA_COMPAT  = T    GGA compatible to vasp.4.4-vasp.4.6
   LMAXPAW     = -100 max onsite density
   LMAXMIX     =    2 max onsite mixed and CHGCAR
   VOSKOWN=      0    Vosko Wilk Nusair interpolation
   ROPT   =   -0.00025
 Ionic relaxation
   EDIFFG = -.3E-01   stopping-criterion for IOM
   NSW    =    300    number of steps for IOM
   NBLOCK =      1;   KBLOCK =    300    inner block; outer block 
   IBRION =      2    ionic relax: 0-MD 1-quasi-New 2-CG
   NFREE  =      1    steps in history (QN), initial steepest desc. (CG)
   ISIF   =      2    stress and relaxation
   IWAVPR =     11    prediction:  0-non 1-charg 2-wave 3-comb
   ISYM   =      0    0-nonsym 1-usesym 2-fastsym
   LCORR  =      T    Harris-Foulkes like correction to forces

   POTIM  = 0.5000    time-step for ionic-motion
   TEIN   =    0.0    initial temperature
   TEBEG  =    0.0;   TEEND  =   0.0 temperature during run
   SMASS  =  -3.00    Nose mass-parameter (am)
   estimated Nose-frequenzy (Omega)   =  0.10E-29 period in steps = 0.13E+47 mass=  -0.277E-26a.u.
   SCALEE = 1.0000    scale energy and forces
   NPACO  =    256;   APACO  = 10.0  distance and # of slots for P.C.
   PSTRESS=    0.0 pullay stress

  Mass of Ions in am
   POMASS = 106.42
  Ionic Valenz
   ZVAL   =  16.00
  Atomic Wigner-Seitz radii
   RWIGS  =  -1.00
  virtual crystal weights 
   VCA    =   1.00
   NELECT =    1280.0000    total number of electrons
   NUPDOWN=      -1.0000    fix difference up-down

 DOS related values:
   EMIN   =  10.00;   EMAX   =-10.00  energy-range for DOS
   EFERMI =   0.00;   METHOD = LEGACY      
   ISMEAR =     1;   SIGMA  =   0.10  broadening in eV -4-tet -1-fermi 0-gaus

 Electronic relaxation 2 (details)
   IALGO  =     38    algorithm
   LDIAG  =      T    sub-space diagonalisation (order eigenvalues)
   LSUBROT=      F    optimize rotation matrix (better conditioning)
   TURBO    =      0    0=normal 1=particle mesh
   IRESTART =      0    0=no restart 2=restart with 2 vectors
   NREBOOT  =      0    no. of reboots
   NMIN     =      0    reboot dimension
   EREF     =   0.00    reference energy to select bands
   IMIX   =      4    mixing-type and parameters
     AMIX     =   0.40;   BMIX     =  1.00
     AMIX_MAG =   1.60;   BMIX_MAG =  1.00
     AMIN     =   0.10
     WC   =   100.;   INIMIX=   1;  MIXPRE=   1;  MAXMIX= -45

 Intra band minimization:
   WEIMIN = 0.0010     energy-eigenvalue tresh-hold
   EBREAK =  0.31E-09  absolut break condition
   DEPER  =   0.30     relativ break condition  

   TIME   =   0.40     timestep for ELM

  volume/ion in A,a.u.               =      42.06       283.80
  Fermi-wavevector in a.u.,A,eV,Ry     =   1.186245  2.241678 19.145810  1.407177
  Thomas-Fermi vector in A             =   2.322422
 
 Write flags
   LWAVE        =      F    write WAVECAR
   LDOWNSAMPLE  =      F    k-point downsampling of WAVECAR
   LCHARG       =      F    write CHGCAR
   LVTOT        =      F    write LOCPOT, total local potential
   LVHAR        =      F    write LOCPOT, Hartree potential only
   WRT_POTENTIAL= false  ! write potential to hdf5 file
   LELF         =      F    write electronic localiz. function (ELF)
   LORBIT       =     11    0 simple, 1 ext, 2 COOP (PROOUT), +10 PAW based schemes


 Dipole corrections
   LMONO      =      F    monopole corrections only (constant potential shift)
   LDIPOL     =      T    correct potential (dipole corrections)
   IDIPOL     =      3    1-x, 2-y, 3-z, 4-all directions 
   EPSILON    =  1.0000000 bulk dielectric constant
   LVACPOTAV  =      F  vacuum potentials using an averaging scheme for the charge density
   VACPOTFLAT =  0.1000000 required flatness to determine vacuum potential
 Exchange correlation treatment:
   GGA     = PE    functional components
   XC_C    = 1    coefficients multiplying the functional components
   LIBXC   =     F    Libxc                    
   VOSKOWN =     0    Vosko Wilk Nusair interpolation
   LHFCALC =     F    Hartree Fock is set to
   LHFONE  =     F    Hartree Fock one center treatment
   AEXX    =    0.0000 exact exchange contribution

 Parameters of functionals:
   PE:
     No parameter
 
 Van der Waals corrections
   IVDW    =    12    specifies the selected vdW correction

 Linear response parameters
   LEPSILON=     F    determine dielectric tensor
   LRPA    =     F    only Hartree local field effects (RPA)
   LNABLA  =     F    use nabla operator in PAW spheres
   LVEL    =     F    velocity operator in full k-point grid
   CSHIFT  =0.1000    complex shift for real part using Kramers Kronig
   OMEGAMAX=  -1.0    maximum frequency
   DEG_THRESHOLD= 0.2000000E-02 threshold for treating states as degnerate
   RTIME   =   -0.100 relaxation time in fs
  (WPLASMAI=    0.000 imaginary part of plasma frequency in eV, 0.658/RTIME)
   DFIELD  = 0.0000000 0.0000000 0.0000000 field for delta impulse in time
 
  Optional k-point grid parameters
   LKPOINTS_OPT  =     F    use optional k-point grid
   KPOINTS_OPT_MODE=     1    mode for optional k-point grid
 
 Orbital magnetization related:
   ORBITALMAG=     F  switch on orbital magnetization
   LCHIMAG   =     F  perturbation theory with respect to B field
   DQ        =  0.001000  dq finite difference perturbation B field
   LLRAUG    =     F  two centre corrections for induced B field
   LBONE     =     F  B-component reconstruction in AE one-centre
   LVGVCALC  =     T  calculate vGv susceptibility
   LVGVAPPL  =     F  apply vGv susceptibility instead of pGv for G=0

 Random number generation:
   RANDOM_GENERATOR = DEFAULT
   PCG_SEED         = not used


--------------------------------------------------------------------------------------------------------


 conjugate gradient relaxation of ions
   using selective dynamics as specified on POSCAR
   WARNING: If single coordinates had been selected the selection of coordinates
            is made according to the corresponding   d i r e c t   coordinates!
            Don't support selection of single cartesian coordinates -- sorry ... !
 charge density and potential will be updated during run
 spin polarized calculation
 Variant of blocked Davidson
 Davidson routine will perform the subspace rotation
 perform sub-space diagonalisation
    after iterative eigenvector-optimisation
 modified Broyden-mixing scheme, WC =      100.0
 initial mixing is a Kerker type mixing with AMIX =  0.4000 and BMIX =      1.0000
 Hartree-type preconditioning will be used
 using additional bands           176
 real space projection scheme for non local part
 use partial core corrections
 calculate Harris-corrections to forces 
   (improved forces if not selfconsistent)
 use gradient corrections 
 use of overlap-Matrix (Vanderbilt PP)
 Methfessel and Paxton  Order N= 1 SIGMA  =   0.10


--------------------------------------------------------------------------------------------------------


  energy-cutoff  :      520.00
  volume of cell :     3364.43
      direct lattice vectors                 reciprocal lattice vectors
    11.004690438  0.000000000  0.000000000     0.090870343  0.000000000  0.000000000
     0.000000000 11.004690438  0.000000000     0.000000000  0.090870343  0.000000000
     0.000000000  0.000000000 27.781491233     0.000000000  0.000000000  0.035995188

  length of vectors
    11.004690438 11.004690438 27.781491233     0.090870343  0.090870343  0.035995188


 
 k-points in units of 2pi/SCALE and weight: read from INCAR                         
   0.00000000  0.00000000  0.00000000       0.111
   0.03029011  0.00000000  0.00000000       0.222
   0.00000000  0.03029011  0.00000000       0.222
   0.03029011  0.03029011  0.00000000       0.222
  -0.03029011  0.03029011  0.00000000       0.222
 
 k-points in reciprocal lattice and weights: read from INCAR                         
   0.00000000  0.00000000  0.00000000       0.111
   0.33333333  0.00000000  0.00000000       0.222
   0.00000000  0.33333333  0.00000000       0.222
   0.33333333  0.33333333  0.00000000       0.222
  -0.33333333  0.33333333  0.00000000       0.222
 
 position of ions in fractional coordinates (direct lattice) 
   0.00000000  0.00000000  0.05399278
   0.37500000  0.62500000  0.26406496
   0.12500000  0.62500000  0.26406496
   0.87500000  0.37500000  0.26406496
   0.62500000  0.37500000  0.26406496
   0.37500000  0.37500000  0.26406496
   0.12500000  0.37500000  0.26406496
   0.87500000  0.12500000  0.26406496
   0.62500000  0.62500000  0.26406496
   0.62500000  0.12500000  0.26406496
   0.12500000  0.12500000  0.26406496
   0.75000000  0.75000000  0.19404090
   0.50000000  0.75000000  0.19404090
   0.25000000  0.75000000  0.19404090
   0.00000000  0.75000000  0.19404090
   0.75000000  0.50000000  0.19404090
   0.50000000  0.50000000  0.19404090
   0.37500000  0.12500000  0.26406496
   0.25000000  0.50000000  0.19404090
   0.87500000  0.62500000  0.26406496
   0.37500000  0.87500000  0.26406496
   0.25000000  0.75000000  0.33408902
   0.00000000  0.75000000  0.33408902
   0.75000000  0.50000000  0.33408902
   0.50000000  0.50000000  0.33408902
   0.25000000  0.50000000  0.33408902
   0.00000000  0.50000000  0.33408902
   0.75000000  0.25000000  0.33408902
   0.12500000  0.87500000  0.26406496
   0.50000000  0.25000000  0.33408902
   0.00000000  0.25000000  0.33408902
   0.75000000  0.00000000  0.33408902
   0.50000000  0.00000000  0.33408902
   0.25000000  0.00000000  0.33408902
   0.00000000  0.00000000  0.33408902
   0.87500000  0.87500000  0.26406496
   0.62500000  0.87500000  0.26406496
   0.25000000  0.25000000  0.33408902
   0.00000000  0.50000000  0.19404090
   0.75000000  0.25000000  0.19404090
   0.50000000  0.25000000  0.19404090
   0.12500000  0.12500000  0.12401684
   0.75000000  0.75000000  0.05399278
   0.50000000  0.75000000  0.05399278
   0.25000000  0.75000000  0.05399278
   0.00000000  0.75000000  0.05399278
   0.75000000  0.50000000  0.05399278
   0.50000000  0.50000000  0.05399278
   0.37500000  0.12500000  0.12401684
   0.25000000  0.50000000  0.05399278
   0.75000000  0.25000000  0.05399278
   0.50000000  0.25000000  0.05399278
   0.25000000  0.25000000  0.05399278
   0.00000000  0.25000000  0.05399278
   0.75000000  0.00000000  0.05399278
   0.50000000  0.00000000  0.05399278
   0.25000000  0.00000000  0.05399278
   0.00000000  0.50000000  0.05399278
   0.62500000  0.12500000  0.12401684
   0.87500000  0.12500000  0.12401684
   0.12500000  0.37500000  0.12401684
   0.25000000  0.25000000  0.19404090
   0.00000000  0.25000000  0.19404090
   0.75000000  0.00000000  0.19404090
   0.50000000  0.00000000  0.19404090
   0.25000000  0.00000000  0.19404090
   0.00000000  0.00000000  0.19404090
   0.87500000  0.87500000  0.12401684
   0.62500000  0.87500000  0.12401684
   0.37500000  0.87500000  0.12401684
   0.12500000  0.87500000  0.12401684
   0.87500000  0.62500000  0.12401684
   0.62500000  0.62500000  0.12401684
   0.37500000  0.62500000  0.12401684
   0.12500000  0.62500000  0.12401684
   0.87500000  0.37500000  0.12401684
   0.62500000  0.37500000  0.12401684
   0.37500000  0.37500000  0.12401684
   0.50000000  0.75000000  0.33408902
   0.75000000  0.75000000  0.33408902
 
 position of ions in cartesian coordinates  (Angst):
   0.00000000  0.00000000  1.50000000
   4.12675891  6.87793152  7.33611842
   1.37558630  6.87793152  7.33611842
   9.62910413  4.12675891  7.33611842
   6.87793152  4.12675891  7.33611842
   4.12675891  4.12675891  7.33611842
   1.37558630  4.12675891  7.33611842
   9.62910413  1.37558630  7.33611842
   6.87793152  6.87793152  7.33611842
   6.87793152  1.37558630  7.33611842
   1.37558630  1.37558630  7.33611842
   8.25351783  8.25351783  5.39074562
   5.50234522  8.25351783  5.39074562
   2.75117261  8.25351783  5.39074562
   0.00000000  8.25351783  5.39074562
   8.25351783  5.50234522  5.39074562
   5.50234522  5.50234522  5.39074562
   4.12675891  1.37558630  7.33611842
   2.75117261  5.50234522  5.39074562
   9.62910413  6.87793152  7.33611842
   4.12675891  9.62910413  7.33611842
   2.75117261  8.25351783  9.28149123
   0.00000000  8.25351783  9.28149123
   8.25351783  5.50234522  9.28149123
   5.50234522  5.50234522  9.28149123
   2.75117261  5.50234522  9.28149123
   0.00000000  5.50234522  9.28149123
   8.25351783  2.75117261  9.28149123
   1.37558630  9.62910413  7.33611842
   5.50234522  2.75117261  9.28149123
   0.00000000  2.75117261  9.28149123
   8.25351783  0.00000000  9.28149123
   5.50234522  0.00000000  9.28149123
   2.75117261  0.00000000  9.28149123
   0.00000000  0.00000000  9.28149123
   9.62910413  9.62910413  7.33611842
   6.87793152  9.62910413  7.33611842
   2.75117261  2.75117261  9.28149123
   0.00000000  5.50234522  5.39074562
   8.25351783  2.75117261  5.39074562
   5.50234522  2.75117261  5.39074562
   1.37558630  1.37558630  3.44537281
   8.25351783  8.25351783  1.50000000
   5.50234522  8.25351783  1.50000000
   2.75117261  8.25351783  1.50000000
   0.00000000  8.25351783  1.50000000
   8.25351783  5.50234522  1.50000000
   5.50234522  5.50234522  1.50000000
   4.12675891  1.37558630  3.44537281
   2.75117261  5.50234522  1.50000000
   8.25351783  2.75117261  1.50000000
   5.50234522  2.75117261  1.50000000
   2.75117261  2.75117261  1.50000000
   0.00000000  2.75117261  1.50000000
   8.25351783  0.00000000  1.50000000
   5.50234522  0.00000000  1.50000000
   2.75117261  0.00000000  1.50000000
   0.00000000  5.50234522  1.50000000
   6.87793152  1.37558630  3.44537281
   9.62910413  1.37558630  3.44537281
   1.37558630  4.12675891  3.44537281
   2.75117261  2.75117261  5.39074562
   0.00000000  2.75117261  5.39074562
   8.25351783  0.00000000  5.39074562
   5.50234522  0.00000000  5.39074562
   2.75117261  0.00000000  5.39074562
   0.00000000  0.00000000  5.39074562
   9.62910413  9.62910413  3.44537281
   6.87793152  9.62910413  3.44537281
   4.12675891  9.62910413  3.44537281
   1.37558630  9.62910413  3.44537281
   9.62910413  6.87793152  3.44537281
   6.87793152  6.87793152  3.44537281
   4.12675891  6.87793152  3.44537281
   1.37558630  6.87793152  3.44537281
   9.62910413  4.12675891  3.44537281
   6.87793152  4.12675891  3.44537281
   4.12675891  4.12675891  3.44537281
   5.50234522  8.25351783  9.28149123
   8.25351783  8.25351783  9.28149123
 


--------------------------------------------------------------------------------------------------------


 k-point     1 :   0.0000 0.0000 0.0000  plane waves:   90575
 k-point     2 :   0.3333 0.0000 0.0000  plane waves:   90631
 k-point     3 :   0.0000 0.3333 0.0000  plane waves:   90631
 k-point     4 :   0.3333 0.3333 0.0000  plane waves:   90541
 k-point     5 :  -0.3333 0.3333 0.0000  plane waves:   90541

 maximum and minimum number of plane-waves per node :     90631    90541

 maximum number of plane-waves:     90631
 maximum index in each direction: 
   IXMAX=   20   IYMAX=   20   IZMAX=   51
   IXMIN=  -20   IYMIN=  -20   IZMIN=  -51


 serial   3D FFT for wavefunctions
 parallel 3D FFT for charge:
    minimum data exchange during FFTs selected (reduces bandwidth)


 total amount of memory used by VASP MPI-rank0  1143026. kBytes
=======================================================================

   base      :      30000. kBytes
   nonlr-proj:      69580. kBytes
   fftplans  :     114729. kBytes
   grid      :     174857. kBytes
   one-center:       2488. kBytes
   wavefun   :     751372. kBytes
 
     INWAV:  cpu time      0.0000: real time      0.0001
 Broyden mixing: mesh for mixing (old mesh)
   NGX = 41   NGY = 41   NGZ =103
  (NGX  =168   NGY  =168   NGZ  =420)
  gives a total of 173143 points

 initial charge density was supplied:
 charge density of overlapping atoms calculated
 number of electron    1280.0000000 magnetization      80.0000000
 keeping initial charge density in first step


--------------------------------------------------------------------------------------------------------


 Maximum index for non-local projection operator          4968
 Maximum index for augmentation-charges          8844 (set IRDMAX)


--------------------------------------------------------------------------------------------------------


 First call to EWALD:  gamma=   0.118
 Maximum number of real-space cells 4x 4x 2
 Maximum number of reciprocal cells 2x 2x 5

    FEWALD:  cpu time      0.0037: real time      0.0037


--------------------------------------- Ionic step        1  -------------------------------------------




--------------------------------------- Iteration      1(   1)  ---------------------------------------


    POTLOK:  cpu time      1.0789: real time      1.0789
    SETDIJ:  cpu time      2.6254: real time      2.6268
     EDDAV:  cpu time    327.3047: real time    327.3309
       DOS:  cpu time      0.0011: real time      0.0011
    --------------------------------------------
      LOOP:  cpu time    331.0101: real time    331.0377

 eigenvalue-minimisations  : 19184
 total energy-change (2. order) : 0.1270603E+05  (-0.8204669E+05)
 number of electron    1280.0000000 magnetization      80.0000000
 augmentation part     1280.0000000 magnetization      80.0000000

 DIPCOR: dipole corrections for dipol
 direction  3 min pos   293,
 dipolmoment           0.000000      0.000000      0.000005 electrons x Angstroem
 Tr[quadrupol]    -27134.823777

 energy correction for charged system         0.000000 eV
 dipol+quadrupol energy correction           -0.000000 eV
 added-field ion interaction          0.000012 eV  (added to PSCEN)


 Free energy of the ion-electron system (eV)
  ---------------------------------------------------
  alpha Z        PSCENC =      3878.78827360
  Ewald energy   TEWEN  =   1049753.50742933
  -Hartree energ DENC   =  -1246577.16637950
  -exchange      EXHF   =         0.00000000
  -V(xc)+E(xc)   XCENC  =      6610.85823173
  PAW double counting   =    180633.68120507  -178327.71979866
  entropy T*S    EENTRO =        -0.00683116
  eigenvalues    EBANDS =    -12989.60740083
  atomic energy  EATOM  =    209723.69722577
  Solvation  Ediel_sol  =         0.00000000
  ---------------------------------------------------
  free energy    TOTEN  =     12706.03195535 eV

  energy without entropy =    12706.03878652  energy(sigma->0) =    12706.03423241


--------------------------------------------------------------------------------------------------------




--------------------------------------- Iteration      1(   2)  ---------------------------------------


     EDDAV:  cpu time    309.4915: real time    309.5001
       DOS:  cpu time      0.0010: real time      0.0010
    --------------------------------------------
      LOOP:  cpu time    309.4925: real time    309.5011

 eigenvalue-minimisations  : 17840
 total energy-change (2. order) :-0.1268729E+05  (-0.1235917E+05)
 number of electron    1280.0000000 magnetization      80.0000000
 augmentation part     1280.0000000 magnetization      80.0000000

 DIPCOR: dipole corrections for dipol
 direction  3 min pos   293,
 dipolmoment           0.000000      0.000000      0.000005 electrons x Angstroem
 Tr[quadrupol]    -27134.823777

 energy correction for charged system         0.000000 eV
 dipol+quadrupol energy correction           -0.000000 eV
 added-field ion interaction          0.000012 eV  (added to PSCEN)


 Free energy of the ion-electron system (eV)
  ---------------------------------------------------
  alpha Z        PSCENC =      3878.78827360
  Ewald energy   TEWEN  =   1049753.50742933
  -Hartree energ DENC   =  -1246577.16637950
  -exchange      EXHF   =         0.00000000
  -V(xc)+E(xc)   XCENC  =      6610.85823173
  PAW double counting   =    180633.68120507  -178327.71979866
  entropy T*S    EENTRO =         0.00852082
  eigenvalues    EBANDS =    -25676.91006273
  atomic energy  EATOM  =    209723.69722577
  Solvation  Ediel_sol  =         0.00000000
  ---------------------------------------------------
  free energy    TOTEN  =        18.74464544 eV

  energy without entropy =       18.73612462  energy(sigma->0) =       18.74180516


--------------------------------------------------------------------------------------------------------




--------------------------------------- Iteration      1(   3)  ---------------------------------------


     EDDAV:  cpu time    307.3568: real time    307.3768
       DOS:  cpu time      0.0009: real time      0.0009
    --------------------------------------------
      LOOP:  cpu time    307.3577: real time    307.3778

 eigenvalue-minimisations  : 17712
 total energy-change (2. order) :-0.4204639E+03  (-0.4047852E+03)
 number of electron    1280.0000000 magnetization      80.0000000
 augmentation part     1280.0000000 magnetization      80.0000000

 DIPCOR: dipole corrections for dipol
 direction  3 min pos   293,
 dipolmoment           0.000000      0.000000      0.000005 electrons x Angstroem
 Tr[quadrupol]    -27134.823777

 energy correction for charged system         0.000000 eV
 dipol+quadrupol energy correction           -0.000000 eV
 added-field ion interaction          0.000012 eV  (added to PSCEN)


 Free energy of the ion-electron system (eV)
  ---------------------------------------------------
  alpha Z        PSCENC =      3878.78827360
  Ewald energy   TEWEN  =   1049753.50742933
  -Hartree energ DENC   =  -1246577.16637950
  -exchange      EXHF   =         0.00000000
  -V(xc)+E(xc)   XCENC  =      6610.85823173
  PAW double counting   =    180633.68120507  -178327.71979866
  entropy T*S    EENTRO =        -0.00696107
  eigenvalues    EBANDS =    -26097.35851483
  atomic energy  EATOM  =    209723.69722577
  Solvation  Ediel_sol  =         0.00000000
  ---------------------------------------------------
  free energy    TOTEN  =      -401.71928856 eV

  energy without entropy =     -401.71232748  energy(sigma->0) =     -401.71696820


--------------------------------------------------------------------------------------------------------




--------------------------------------- Iteration      1(   4)  ---------------------------------------


     EDDAV:  cpu time    305.3256: real time    305.3308
       DOS:  cpu time      0.0008: real time      0.0008
    --------------------------------------------
      LOOP:  cpu time    305.3264: real time    305.3315

 eigenvalue-minimisations  : 17552
 total energy-change (2. order) :-0.6860278E+01  (-0.6843550E+01)
 number of electron    1280.0000000 magnetization      80.0000000
 augmentation part     1280.0000000 magnetization      80.0000000

 DIPCOR: dipole corrections for dipol
 direction  3 min pos   293,
 dipolmoment           0.000000      0.000000      0.000005 electrons x Angstroem
 Tr[quadrupol]    -27134.823777

 energy correction for charged system         0.000000 eV
 dipol+quadrupol energy correction           -0.000000 eV
 added-field ion interaction          0.000012 eV  (added to PSCEN)


 Free energy of the ion-electron system (eV)
  ---------------------------------------------------
  alpha Z        PSCENC =      3878.78827360
  Ewald energy   TEWEN  =   1049753.50742933
  -Hartree energ DENC   =  -1246577.16637950
  -exchange      EXHF   =         0.00000000
  -V(xc)+E(xc)   XCENC  =      6610.85823173
  PAW double counting   =    180633.68120507  -178327.71979866
  entropy T*S    EENTRO =        -0.00440221
  eigenvalues    EBANDS =    -26104.22135121
  atomic energy  EATOM  =    209723.69722577
  Solvation  Ediel_sol  =         0.00000000
  ---------------------------------------------------
  free energy    TOTEN  =      -408.57956607 eV

  energy without entropy =     -408.57516386  energy(sigma->0) =     -408.57809867


--------------------------------------------------------------------------------------------------------




--------------------------------------- Iteration      1(   5)  ---------------------------------------


     EDDAV:  cpu time    333.4278: real time    333.4324
       DOS:  cpu time      0.0008: real time      0.0008
    CHARGE:  cpu time     15.0074: real time     15.0078
    MIXING:  cpu time      0.0551: real time      0.0551
    --------------------------------------------
      LOOP:  cpu time    348.4912: real time    348.4961

 eigenvalue-minimisations  : 19680
 total energy-change (2. order) :-0.2060306E+00  (-0.2059959E+00)
 number of electron    1280.0000047 magnetization      77.0545551
 augmentation part      601.1495124 magnetization      60.3319526

 DIPCOR: dipole corrections for dipol
 direction  3 min pos   293,
 dipolmoment           0.000000      0.000000      0.000005 electrons x Angstroem
 Tr[quadrupol]    -27134.823777

 energy correction for charged system         0.000000 eV
 dipol+quadrupol energy correction           -0.000000 eV
 added-field ion interaction          0.000012 eV  (added to PSCEN)


 Broyden mixing:
  rms(total) = 0.45430E+01    rms(broyden)= 0.45429E+01
  rms(prec ) = 0.46336E+01
  weight for this iteration     100.00

 Free energy of the ion-electron system (eV)
  ---------------------------------------------------
  alpha Z        PSCENC =      3878.78827360
  Ewald energy   TEWEN  =   1049753.50742933
  -Hartree energ DENC   =  -1246577.16637950
  -exchange      EXHF   =         0.00000000
  -V(xc)+E(xc)   XCENC  =      6610.85823173
  PAW double counting   =    180633.68120507  -178327.71979866
  entropy T*S    EENTRO =        -0.00437980
  eigenvalues    EBANDS =    -26104.42740418
  atomic energy  EATOM  =    209723.69722577
  Solvation  Ediel_sol  =         0.00000000
  ---------------------------------------------------
  free energy    TOTEN  =      -408.78559664 eV

  energy without entropy =     -408.78121684  energy(sigma->0) =     -408.78413670


--------------------------------------------------------------------------------------------------------




--------------------------------------- Iteration      1(   6)  ---------------------------------------


    POTLOK:  cpu time      1.0418: real time      1.0419
    SETDIJ:  cpu time      2.6197: real time      2.6214
     EDDAV:  cpu time    293.7475: real time    293.7540
       DOS:  cpu time      0.0012: real time      0.0012
    CHARGE:  cpu time     14.8326: real time     14.8327
    MIXING:  cpu time      0.0543: real time      0.0543
    --------------------------------------------
      LOOP:  cpu time    312.2970: real time    312.3055

 eigenvalue-minimisations  : 16688
 total energy-change (2. order) : 0.2227315E+02  (-0.8038294E+01)
 number of electron    1280.0000048 magnetization      73.8095847
 augmentation part      616.0016371 magnetization      56.9779477

 DIPCOR: dipole corrections for dipol
 direction  3 min pos   292,
 dipolmoment           0.000000      0.000000      0.001380 electrons x Angstroem
 Tr[quadrupol]    -27141.425660

 energy correction for charged system         0.000000 eV
 dipol+quadrupol energy correction           -0.000000 eV
 added-field ion interaction         -0.003125 eV  (added to PSCEN)


 Broyden mixing:
  rms(total) = 0.20551E+01    rms(broyden)= 0.20551E+01
  rms(prec ) = 0.22319E+01
  weight for this iteration     100.00

 eigenvalues of (default mixing * dielectric matrix)
  average eigenvalue GAMMA=   0.9185
  0.9185

 Free energy of the ion-electron system (eV)
  ---------------------------------------------------
  alpha Z        PSCENC =      3878.78513588
  Ewald energy   TEWEN  =   1049753.50742933
  -Hartree energ DENC   =  -1245812.51634310
  -exchange      EXHF   =         0.00000000
  -V(xc)+E(xc)   XCENC  =      6561.92504824
  PAW double counting   =    185002.82513820  -182823.05995223
  entropy T*S    EENTRO =         0.01743040
  eigenvalues    EBANDS =    -26671.69355646
  atomic energy  EATOM  =    209723.69722577
  Solvation  Ediel_sol  =         0.00000000
  ---------------------------------------------------
  free energy    TOTEN  =      -386.51244396 eV

  energy without entropy =     -386.52987436  energy(sigma->0) =     -386.51825409


--------------------------------------------------------------------------------------------------------




--------------------------------------- Iteration      1(   7)  ---------------------------------------


    POTLOK:  cpu time      1.0411: real time      1.0422
    SETDIJ:  cpu time      2.6183: real time      2.6211
     EDDAV:  cpu time    304.6637: real time    304.6821
       DOS:  cpu time      0.0015: real time      0.0015
    CHARGE:  cpu time     14.9365: real time     14.9368
    MIXING:  cpu time      0.0384: real time      0.0384
    --------------------------------------------
      LOOP:  cpu time    323.2994: real time    323.3221

 eigenvalue-minimisations  : 17488
 total energy-change (2. order) :-0.1008710E+02  (-0.3996017E+01)
 number of electron    1280.0000048 magnetization      72.2543799
 augmentation part      612.3566501 magnetization      56.3496470

 DIPCOR: dipole corrections for dipol
 direction  3 min pos   290,
 dipolmoment           0.000000      0.000000     -0.009507 electrons x Angstroem
 Tr[quadrupol]    -27157.262627

 energy correction for charged system         0.000000 eV
 dipol+quadrupol energy correction           -0.000002 eV
 added-field ion interaction          0.108109 eV  (added to PSCEN)


 Broyden mixing:
  rms(total) = 0.43700E+01    rms(broyden)= 0.43699E+01
  rms(prec ) = 0.51771E+01
  weight for this iteration     100.00

 eigenvalues of (default mixing * dielectric matrix)
  average eigenvalue GAMMA=   0.7068
  1.1501  0.2635

 Free energy of the ion-electron system (eV)
  ---------------------------------------------------
  alpha Z        PSCENC =      3878.89636814
  Ewald energy   TEWEN  =   1049753.50742933
  -Hartree energ DENC   =  -1246754.11865471
  -exchange      EXHF   =         0.00000000
  -V(xc)+E(xc)   XCENC  =      6570.76102023
  PAW double counting   =    187406.67373811  -185236.74037900
  entropy T*S    EENTRO =        -0.03969434
  eigenvalues    EBANDS =    -25739.23659293
  atomic energy  EATOM  =    209723.69722577
  Solvation  Ediel_sol  =         0.00000000
  ---------------------------------------------------
  free energy    TOTEN  =      -396.59953938 eV

  energy without entropy =     -396.55984504  energy(sigma->0) =     -396.58630794


--------------------------------------------------------------------------------------------------------




--------------------------------------- Iteration      1(   8)  ---------------------------------------


    POTLOK:  cpu time      1.0448: real time      1.0449
    SETDIJ:  cpu time      2.6235: real time      2.6262
     EDDAV:  cpu time    315.8697: real time    315.8748
       DOS:  cpu time      0.0012: real time      0.0012
    CHARGE:  cpu time     14.8561: real time     14.8563
    MIXING:  cpu time      0.0596: real time      0.0596
    --------------------------------------------
      LOOP:  cpu time    334.4550: real time    334.4629

 eigenvalue-minimisations  : 18336
 total energy-change (2. order) : 0.2984709E+02  (-0.3637779E+01)
 number of electron    1280.0000048 magnetization      69.8349368
 augmentation part      615.3608999 magnetization      51.4109350

 DIPCOR: dipole corrections for dipol
 direction  3 min pos   275,
 dipolmoment           0.000000      0.000000      0.103643 electrons x Angstroem
 Tr[quadrupol]    -27150.419184

 energy correction for charged system         0.000000 eV
 dipol+quadrupol energy correction           -0.000289 eV
 added-field ion interaction         -8.258278 eV  (added to PSCEN)


 Broyden mixing:
  rms(total) = 0.15425E+01    rms(broyden)= 0.15425E+01
  rms(prec ) = 0.16171E+01
  weight for this iteration     100.00

 eigenvalues of (default mixing * dielectric matrix)
  average eigenvalue GAMMA=   0.6892
  1.3027  0.5713  0.1936

 Free energy of the ion-electron system (eV)
  ---------------------------------------------------
  alpha Z        PSCENC =      3870.52969465
  Ewald energy   TEWEN  =   1049753.50742933
  -Hartree energ DENC   =  -1246356.76723071
  -exchange      EXHF   =         0.00000000
  -V(xc)+E(xc)   XCENC  =      6575.72534429
  PAW double counting   =    188194.93639099  -186036.05765410
  entropy T*S    EENTRO =         0.01380602
  eigenvalues    EBANDS =    -26092.33745319
  atomic energy  EATOM  =    209723.69722577
  Solvation  Ediel_sol  =         0.00000000
  ---------------------------------------------------
  free energy    TOTEN  =      -366.75244695 eV

  energy without entropy =     -366.76625297  energy(sigma->0) =     -366.75704896


--------------------------------------------------------------------------------------------------------




--------------------------------------- Iteration      1(   9)  ---------------------------------------


    POTLOK:  cpu time      1.0429: real time      1.0432
    SETDIJ:  cpu time      2.6167: real time      2.6175
     EDDAV:  cpu time    307.8598: real time    307.8785
       DOS:  cpu time      0.0011: real time      0.0011
    CHARGE:  cpu time     15.0447: real time     15.0451
    MIXING:  cpu time      0.0590: real time      0.0590
    --------------------------------------------
      LOOP:  cpu time    326.6242: real time    326.6443

 eigenvalue-minimisations  : 17056
 total energy-change (2. order) :-0.7850731E-02  (-0.1142142E+01)
 number of electron    1280.0000048 magnetization      69.0122796
 augmentation part      615.2101266 magnetization      51.1966990

 DIPCOR: dipole corrections for dipol
 direction  3 min pos   299,
 dipolmoment           0.000000      0.000000     -0.463807 electrons x Angstroem
 Tr[quadrupol]    -27152.560319

 energy correction for charged system         0.000000 eV
 dipol+quadrupol energy correction           -0.005785 eV
 added-field ion interaction        -13.734687 eV  (added to PSCEN)


 Broyden mixing:
  rms(total) = 0.25643E+01    rms(broyden)= 0.25643E+01
  rms(prec ) = 0.35241E+01
  weight for this iteration     100.00

 eigenvalues of (default mixing * dielectric matrix)
  average eigenvalue GAMMA=   0.5688
  1.3494  0.6031  0.1841  0.1387

 Free energy of the ion-electron system (eV)
  ---------------------------------------------------
  alpha Z        PSCENC =      3865.04778955
  Ewald energy   TEWEN  =   1049753.50742933
  -Hartree energ DENC   =  -1246496.70164683
  -exchange      EXHF   =         0.00000000
  -V(xc)+E(xc)   XCENC  =      6578.71183189
  PAW double counting   =    189276.19347461  -187121.65274146
  entropy T*S    EENTRO =        -0.02327592
  eigenvalues    EBANDS =    -25945.54038462
  atomic energy  EATOM  =    209723.69722577
  Solvation  Ediel_sol  =         0.00000000
  ---------------------------------------------------
  free energy    TOTEN  =      -366.76029768 eV

  energy without entropy =     -366.73702177  energy(sigma->0) =     -366.75253904


--------------------------------------------------------------------------------------------------------




--------------------------------------- Iteration      1(  10)  ---------------------------------------


    POTLOK:  cpu time      1.0461: real time      1.0462
    SETDIJ:  cpu time      2.6213: real time      2.6217
     EDDAV:  cpu time    329.5485: real time    331.8173
       DOS:  cpu time      0.0014: real time      0.0014
    CHARGE:  cpu time     14.8798: real time     14.8801
    MIXING:  cpu time      0.0631: real time      0.0631
    --------------------------------------------
      LOOP:  cpu time    348.1602: real time    350.4298

 eigenvalue-minimisations  : 18720
 total energy-change (2. order) :-0.7327398E+00  (-0.1435455E+01)
 number of electron    1280.0000048 magnetization      66.1204277
 augmentation part      614.9990224 magnetization      48.3649247

 DIPCOR: dipole corrections for dipol
 direction  3 min pos   281,
 dipolmoment           0.000000      0.000000      0.627675 electrons x Angstroem
 Tr[quadrupol]    -27153.249438

 energy correction for charged system         0.000000 eV
 dipol+quadrupol energy correction           -0.010595 eV
 added-field ion interaction        -32.862902 eV  (added to PSCEN)


 Broyden mixing:
  rms(total) = 0.28804E+01    rms(broyden)= 0.28804E+01
  rms(prec ) = 0.40647E+01
  weight for this iteration     100.00

 eigenvalues of (default mixing * dielectric matrix)
  average eigenvalue GAMMA=   0.5464
  1.4847  0.6735  0.3155  0.2083  0.0502

 Free energy of the ion-electron system (eV)
  ---------------------------------------------------
  alpha Z        PSCENC =      3845.91476430
  Ewald energy   TEWEN  =   1049753.50742933
  -Hartree energ DENC   =  -1246564.50417327
  -exchange      EXHF   =         0.00000000
  -V(xc)+E(xc)   XCENC  =      6579.86514076
  PAW double counting   =    189588.93828901  -187435.70890691
  entropy T*S    EENTRO =        -0.05058416
  eigenvalues    EBANDS =    -25859.15222231
  atomic energy  EATOM  =    209723.69722577
  Solvation  Ediel_sol  =         0.00000000
  ---------------------------------------------------
  free energy    TOTEN  =      -367.49303748 eV

  energy without entropy =     -367.44245333  energy(sigma->0) =     -367.47617610


--------------------------------------------------------------------------------------------------------




--------------------------------------- Iteration      1(  11)  ---------------------------------------


    POTLOK:  cpu time      1.0400: real time      1.0404
    SETDIJ:  cpu time      2.6178: real time      2.6186
     EDDAV:  cpu time    300.6016: real time    303.1149
       DOS:  cpu time      0.0014: real time      0.0014
    CHARGE:  cpu time     14.9028: real time     14.9038
    MIXING:  cpu time      0.0454: real time      0.0454
    --------------------------------------------
      LOOP:  cpu time    319.2091: real time    321.7245

 eigenvalue-minimisations  : 16992
 total energy-change (2. order) : 0.9642819E+01  (-0.9054109E+00)
 number of electron    1280.0000048 magnetization      61.6725047
 augmentation part      614.8824788 magnetization      42.1525830

 DIPCOR: dipole corrections for dipol
 direction  3 min pos   272,
 dipolmoment           0.000000      0.000000      0.135125 electrons x Angstroem
 Tr[quadrupol]    -27158.512519

 energy correction for charged system         0.000000 eV
 dipol+quadrupol energy correction           -0.000491 eV
 added-field ion interaction        -12.612727 eV  (added to PSCEN)


 Broyden mixing:
  rms(total) = 0.11589E+01    rms(broyden)= 0.11589E+01
  rms(prec ) = 0.12158E+01
  weight for this iteration     100.00

 eigenvalues of (default mixing * dielectric matrix)
  average eigenvalue GAMMA=   0.5484
  1.3831  0.7191  0.7191  0.2101  0.2101  0.0491

 Free energy of the ion-electron system (eV)
  ---------------------------------------------------
  alpha Z        PSCENC =      3866.17504370
  Ewald energy   TEWEN  =   1049753.50742933
  -Hartree energ DENC   =  -1246814.70873399
  -exchange      EXHF   =         0.00000000
  -V(xc)+E(xc)   XCENC  =      6581.79372009
  PAW double counting   =    190592.63929150  -188444.62332676
  entropy T*S    EENTRO =        -0.04172402
  eigenvalues    EBANDS =    -25616.28914420
  atomic energy  EATOM  =    209723.69722577
  Solvation  Ediel_sol  =         0.00000000
  ---------------------------------------------------
  free energy    TOTEN  =      -357.85021857 eV

  energy without entropy =     -357.80849455  energy(sigma->0) =     -357.83631057


--------------------------------------------------------------------------------------------------------




--------------------------------------- Iteration      1(  12)  ---------------------------------------


    POTLOK:  cpu time      1.0400: real time      1.0402
    SETDIJ:  cpu time      2.6197: real time      2.6211
     EDDAV:  cpu time    299.4577: real time    299.4780
       DOS:  cpu time      0.0012: real time      0.0012
    CHARGE:  cpu time     14.9323: real time     14.9331
    MIXING:  cpu time      0.0623: real time      0.0623
    --------------------------------------------
      LOOP:  cpu time    318.1132: real time    318.1358

 eigenvalue-minimisations  : 17088
 total energy-change (2. order) :-0.2116862E+01  (-0.2974067E+00)
 number of electron    1280.0000048 magnetization      54.3324183
 augmentation part      614.7024927 magnetization      35.1229665

 DIPCOR: dipole corrections for dipol
 direction  3 min pos   297,
 dipolmoment           0.000000      0.000000     -0.095583 electrons x Angstroem
 Tr[quadrupol]    -27162.149451

 energy correction for charged system         0.000000 eV
 dipol+quadrupol energy correction           -0.000246 eV
 added-field ion interaction         -1.959959 eV  (added to PSCEN)


 Broyden mixing:
  rms(total) = 0.88438E+00    rms(broyden)= 0.88437E+00
  rms(prec ) = 0.97749E+00
  weight for this iteration     100.00

 eigenvalues of (default mixing * dielectric matrix)
  average eigenvalue GAMMA=   0.8277
  1.8994  1.8994  0.8861  0.6055  0.2271  0.2271  0.0492

 Free energy of the ion-electron system (eV)
  ---------------------------------------------------
  alpha Z        PSCENC =      3876.82805636
  Ewald energy   TEWEN  =   1049753.50742933
  -Hartree energ DENC   =  -1247032.19066042
  -exchange      EXHF   =         0.00000000
  -V(xc)+E(xc)   XCENC  =      6580.80592015
  PAW double counting   =    191510.33131111  -189359.01139429
  entropy T*S    EENTRO =        -0.00828788
  eigenvalues    EBANDS =    -25413.92668038
  atomic energy  EATOM  =    209723.69722577
  Solvation  Ediel_sol  =         0.00000000
  ---------------------------------------------------
  free energy    TOTEN  =      -359.96708024 eV

  energy without entropy =     -359.95879237  energy(sigma->0) =     -359.96431762


--------------------------------------------------------------------------------------------------------




--------------------------------------- Iteration      1(  13)  ---------------------------------------


    POTLOK:  cpu time      1.0406: real time      1.0408
    SETDIJ:  cpu time      2.6173: real time      2.6200
     EDDAV:  cpu time    297.5112: real time    297.5339
       DOS:  cpu time      0.0009: real time      0.0009
    CHARGE:  cpu time     14.8297: real time     14.8306
    MIXING:  cpu time      0.0607: real time      0.0607
    --------------------------------------------
      LOOP:  cpu time    316.0603: real time    316.0867

 eigenvalue-minimisations  : 16960
 total energy-change (2. order) :-0.3269513E+01  (-0.3442584E+00)
 number of electron    1280.0000048 magnetization      52.8048619
 augmentation part      614.4823323 magnetization      35.3423820

 DIPCOR: dipole corrections for dipol
 direction  3 min pos   283,
 dipolmoment           0.000000      0.000000      0.046741 electrons x Angstroem
 Tr[quadrupol]    -27167.269424

 energy correction for charged system         0.000000 eV
 dipol+quadrupol energy correction           -0.000059 eV
 added-field ion interaction         -2.021479 eV  (added to PSCEN)


 Broyden mixing:
  rms(total) = 0.97222E+00    rms(broyden)= 0.97221E+00
  rms(prec ) = 0.10202E+01
  weight for this iteration     100.00

 eigenvalues of (default mixing * dielectric matrix)
  average eigenvalue GAMMA=   0.8141
  2.7046  1.4729  0.7903  0.5859  0.4551  0.2272  0.2272  0.0492

 Free energy of the ion-electron system (eV)
  ---------------------------------------------------
  alpha Z        PSCENC =      3876.76672374
  Ewald energy   TEWEN  =   1049753.50742933
  -Hartree energ DENC   =  -1247328.00315702
  -exchange      EXHF   =         0.00000000
  -V(xc)+E(xc)   XCENC  =      6579.89473226
  PAW double counting   =    192456.22214790  -190300.28466243
  entropy T*S    EENTRO =        -0.03974361
  eigenvalues    EBANDS =    -25124.99728918
  atomic energy  EATOM  =    209723.69722577
  Solvation  Ediel_sol  =         0.00000000
  ---------------------------------------------------
  free energy    TOTEN  =      -363.23659324 eV

  energy without entropy =     -363.19684963  energy(sigma->0) =     -363.22334537


--------------------------------------------------------------------------------------------------------




--------------------------------------- Iteration      1(  14)  ---------------------------------------


    POTLOK:  cpu time      1.0420: real time      1.0430
    SETDIJ:  cpu time      2.6181: real time      2.6195
     EDDAV:  cpu time    296.7310: real time    296.7526
       DOS:  cpu time      0.0016: real time      0.0016
    CHARGE:  cpu time     14.8836: real time     14.8844
    MIXING:  cpu time      0.0619: real time      0.0619
    --------------------------------------------
      LOOP:  cpu time    315.3382: real time    315.3630

 eigenvalue-minimisations  : 16896
 total energy-change (2. order) : 0.1263913E-01  (-0.6020698E-01)
 number of electron    1280.0000048 magnetization      51.0537100
 augmentation part      614.5328888 magnetization      33.9409234

 DIPCOR: dipole corrections for dipol
 direction  3 min pos   276,
 dipolmoment           0.000000      0.000000      0.235250 electrons x Angstroem
 Tr[quadrupol]    -27167.875793

 energy correction for charged system         0.000000 eV
 dipol+quadrupol energy correction           -0.001488 eV
 added-field ion interaction        -17.673361 eV  (added to PSCEN)


 Broyden mixing:
  rms(total) = 0.86229E+00    rms(broyden)= 0.86229E+00
  rms(prec ) = 0.92795E+00
  weight for this iteration     100.00

 eigenvalues of (default mixing * dielectric matrix)
  average eigenvalue GAMMA=   0.8498
  3.2855  1.2501  0.8400  0.8400  0.6277  0.2262  0.2262  0.3032  0.0492

 Free energy of the ion-electron system (eV)
  ---------------------------------------------------
  alpha Z        PSCENC =      3861.11341164
  Ewald energy   TEWEN  =   1049753.50742933
  -Hartree energ DENC   =  -1247366.88557226
  -exchange      EXHF   =         0.00000000
  -V(xc)+E(xc)   XCENC  =      6579.67671817
  PAW double counting   =    192612.74795513  -190458.21905908
  entropy T*S    EENTRO =        -0.03550540
  eigenvalues    EBANDS =    -25068.82655740
  atomic energy  EATOM  =    209723.69722577
  Solvation  Ediel_sol  =         0.00000000
  ---------------------------------------------------
  free energy    TOTEN  =      -363.22395411 eV

  energy without entropy =     -363.18844871  energy(sigma->0) =     -363.21211897


--------------------------------------------------------------------------------------------------------




--------------------------------------- Iteration      1(  15)  ---------------------------------------


    POTLOK:  cpu time      1.0408: real time      1.0410
    SETDIJ:  cpu time      2.6171: real time      2.6194
     EDDAV:  cpu time    296.5268: real time    296.5489
       DOS:  cpu time      0.0014: real time      0.0014
    CHARGE:  cpu time     14.8059: real time     14.8069
    MIXING:  cpu time      0.0474: real time      0.0474
    --------------------------------------------
      LOOP:  cpu time    315.0394: real time    315.0649

 eigenvalue-minimisations  : 16912
 total energy-change (2. order) :-0.1509201E+01  (-0.2515347E-01)
 number of electron    1280.0000048 magnetization      47.6862382
 augmentation part      614.6375579 magnetization      31.0103850

 DIPCOR: dipole corrections for dipol
 direction  3 min pos   273,
 dipolmoment           0.000000      0.000000      0.246882 electrons x Angstroem
 Tr[quadrupol]    -27168.540467

 energy correction for charged system         0.000000 eV
 dipol+quadrupol energy correction           -0.001639 eV
 added-field ion interaction        -21.920064 eV  (added to PSCEN)


 Broyden mixing:
  rms(total) = 0.80939E+00    rms(broyden)= 0.80939E+00
  rms(prec ) = 0.88688E+00
  weight for this iteration     100.00

 eigenvalues of (default mixing * dielectric matrix)
  average eigenvalue GAMMA=   0.9002
  3.6986  1.3640  0.9496  0.9496  0.6625  0.5925  0.2270  0.2270  0.2822  0.0492

 Free energy of the ion-electron system (eV)
  ---------------------------------------------------
[...]
   -.215E-03 -.336E-03 0.784E+04   -.701E-13 -.201E-12 -.784E+04   -.132E-05 0.778E-06 -.485E+01   0.220E-03 0.337E-03 -.152E-01
   -.154E-03 -.290E-03 0.784E+04   -.755E-13 -.158E-12 -.784E+04   0.227E-05 -.225E-05 -.485E+01   0.152E-03 0.293E-03 -.152E-01
   0.234E-03 -.267E-03 0.784E+04   0.589E-13 -.675E-13 -.784E+04   0.172E-05 -.265E-05 -.485E+01   -.241E-03 0.271E-03 -.152E-01
   0.328E-03 0.346E-03 0.784E+04   0.107E-12 -.209E-12 -.784E+04   0.294E-06 -.100E-05 -.485E+01   -.330E-03 -.349E-03 -.151E-01
   -.102E-03 -.646E-03 0.398E+04   0.172E-12 0.201E-12 -.398E+04   0.187E-05 -.456E-05 0.321E+00   0.103E-03 0.653E-03 -.730E-01
   0.136E-03 -.613E-03 0.398E+04   0.163E-12 0.995E-13 -.398E+04   -.171E-05 -.243E-05 0.321E+00   -.133E-03 0.620E-03 -.735E-01
   0.262E-03 0.245E-03 0.398E+04   -.233E-12 0.192E-12 -.398E+04   -.104E-05 0.362E-05 0.321E+00   -.265E-03 -.250E-03 -.733E-01
   -.457E-03 -.192E-03 0.973E-01   0.123E-12 0.109E-12 -.770E-10   -.404E-05 0.198E-05 0.225E-04   0.461E-03 0.192E-03 -.973E-01
   0.224E-03 -.447E-03 0.977E-01   0.345E-12 -.146E-12 -.768E-10   -.139E-05 -.149E-05 0.273E-04   -.224E-03 0.454E-03 -.977E-01
   0.415E-03 -.495E-03 0.975E-01   -.995E-13 -.142E-13 -.762E-10   0.319E-06 -.204E-05 0.237E-04   -.418E-03 0.497E-03 -.974E-01
   -.141E-04 -.540E-03 0.971E-01   -.711E-14 0.171E-12 -.782E-10   0.377E-05 -.657E-05 0.200E-04   0.104E-04 0.548E-03 -.970E-01
   -.396E-03 -.401E-03 0.974E-01   0.310E-13 -.426E-13 -.777E-10   -.898E-06 -.290E-05 0.237E-04   0.399E-03 0.404E-03 -.973E-01
   -.506E-05 -.348E-03 0.978E-01   0.497E-13 -.178E-12 -.761E-10   -.327E-05 0.136E-05 0.245E-04   0.913E-05 0.347E-03 -.977E-01
   0.663E-04 -.262E-04 0.398E+04   -.284E-13 0.178E-13 -.398E+04   -.259E-05 0.213E-05 0.321E+00   -.625E-04 0.237E-04 -.736E-01
   -.101E-03 -.627E-04 0.398E+04   -.142E-13 -.764E-13 -.398E+04   -.118E-05 -.990E-06 0.321E+00   0.105E-03 0.652E-04 -.732E-01
   -.661E-04 -.194E-03 0.398E+04   -.373E-13 -.193E-12 -.398E+04   0.341E-05 -.419E-05 0.321E+00   0.616E-04 0.199E-03 -.730E-01
   0.101E-03 -.158E-03 0.398E+04   0.195E-13 -.790E-13 -.398E+04   0.454E-06 -.173E-05 0.321E+00   -.104E-03 0.161E-03 -.735E-01
   0.231E-03 0.541E-03 0.398E+04   -.101E-12 0.604E-13 -.398E+04   -.125E-05 0.859E-06 0.321E+00   -.228E-03 -.544E-03 -.734E-01
   -.275E-03 0.567E-03 0.398E+04   0.853E-13 0.639E-13 -.398E+04   -.414E-05 0.312E-05 0.321E+00   0.284E-03 -.571E-03 -.730E-01
   -.236E-03 0.371E-03 0.398E+04   -.231E-13 0.693E-13 -.398E+04   0.147E-05 0.256E-05 0.321E+00   0.232E-03 -.374E-03 -.730E-01
   0.280E-03 0.336E-03 0.398E+04   0.121E-12 -.764E-13 -.398E+04   0.412E-05 0.114E-06 0.321E+00   -.288E-03 -.337E-03 -.733E-01
   0.294E-03 0.989E-04 0.398E+04   -.171E-12 0.959E-13 -.398E+04   0.189E-06 -.401E-06 0.321E+00   -.293E-03 -.994E-04 -.733E-01
   -.261E-03 0.142E-03 0.398E+04   -.631E-13 -.137E-12 -.398E+04   0.693E-06 0.269E-05 0.321E+00   0.265E-03 -.147E-03 -.728E-01
   -.294E-03 0.287E-03 0.398E+04   0.105E-12 -.560E-13 -.398E+04   0.552E-06 0.614E-05 0.321E+00   0.292E-03 -.295E-03 -.728E-01
   0.461E-05 0.444E-03 -.784E+04   -.114E-12 -.232E-12 0.784E+04   0.142E-05 0.252E-05 0.485E+01   -.514E-05 -.449E-03 -.156E-01
   0.372E-03 0.464E-03 -.784E+04   -.564E-13 -.142E-12 0.784E+04   -.781E-06 0.312E-05 0.485E+01   -.376E-03 -.469E-03 -.155E-01
 -----------------------------------------------------------------------------------------------
   0.246E-05 0.547E-06 0.440E+01   -.119E-12 -.363E-12 0.500E-10   -.287E-06 -.609E-06 0.112E-01   -.200E-05 -.201E-06 -.440E+01
 
 
 POSITION                                       TOTAL-FORCE (eV/Angst)
 -----------------------------------------------------------------------------------
      0.00000      0.00000      1.50000        -0.000000      0.000003     -0.018875
      4.12676      6.87793      7.33612         0.000003     -0.000000     -0.001496
      1.37559      6.87793      7.33612         0.000003     -0.000002     -0.001500
      9.62910      4.12676      7.33612        -0.000003      0.000003     -0.001502
      6.87793      4.12676      7.33612        -0.000001      0.000002     -0.001497
      4.12676      4.12676      7.33612         0.000002      0.000001     -0.001497
      1.37559      4.12676      7.33612         0.000002      0.000003     -0.001501
      9.62910      1.37559      7.33612        -0.000004      0.000002     -0.001501
      6.87793      6.87793      7.33612        -0.000002     -0.000001     -0.001495
      6.87793      1.37559      7.33612        -0.000004      0.000001     -0.001499
      1.37559      1.37559      7.33612         0.000005      0.000002     -0.001502
      8.25352      8.25352      5.39075        -0.000001     -0.000003     -0.000106
      5.50235      8.25352      5.39075         0.000001      0.000000     -0.000102
      2.75117      8.25352      5.39075         0.000000     -0.000000     -0.000106
      0.00000      8.25352      5.39075        -0.000001     -0.000003     -0.000110
      8.25352      5.50235      5.39075         0.000001     -0.000002     -0.000108
      5.50235      5.50235      5.39075         0.000002     -0.000002     -0.000104
      4.12676      1.37559      7.33612         0.000003      0.000000     -0.001499
      2.75117      5.50235      5.39075        -0.000002     -0.000002     -0.000106
      9.62910      6.87793      7.33612        -0.000004     -0.000002     -0.001500
      4.12676      9.62910      7.33612         0.000003     -0.000001     -0.001497
      2.75117      8.25352      9.28149         0.000005     -0.000002      0.019355
      0.00000      8.25352      9.28149        -0.000000     -0.000002      0.019363
      8.25352      5.50235      9.28149        -0.000005      0.000001      0.019349
      5.50235      5.50235      9.28149         0.000001      0.000002      0.019348
      2.75117      5.50235      9.28149         0.000005      0.000001      0.019353
      0.00000      5.50235      9.28149        -0.000001      0.000001      0.019358
      8.25352      2.75117      9.28149        -0.000005      0.000004      0.019354
      1.37559      9.62910      7.33612         0.000004     -0.000003     -0.001500
      5.50235      2.75117      9.28149         0.000001      0.000003      0.019354
      0.00000      2.75117      9.28149        -0.000001      0.000004      0.019362
      8.25352      0.00000      9.28149        -0.000005     -0.000002      0.019361
      5.50235      0.00000      9.28149         0.000000     -0.000001      0.019357
      2.75117      0.00000      9.28149         0.000005     -0.000001      0.019362
      0.00000      0.00000      9.28149        -0.000000     -0.000002      0.019366
      9.62910      9.62910      7.33612        -0.000004     -0.000003     -0.001499
      6.87793      9.62910      7.33612        -0.000003     -0.000002     -0.001495
      2.75117      2.75117      9.28149         0.000005      0.000003      0.019360
      0.00000      5.50235      5.39075        -0.000002     -0.000002     -0.000111
      8.25352      2.75117      5.39075        -0.000001      0.000005     -0.000110
      5.50235      2.75117      5.39075         0.000001      0.000001     -0.000104
      1.37559      1.37559      3.44537        -0.000003      0.000002      0.001127
      8.25352      8.25352      1.50000         0.000004      0.000000     -0.018883
      5.50235      8.25352      1.50000         0.000001      0.000000     -0.018887
      2.75117      8.25352      1.50000        -0.000004      0.000001     -0.018887
      0.00000      8.25352      1.50000        -0.000001      0.000001     -0.018873
      8.25352      5.50235      1.50000         0.000003     -0.000004     -0.018876
      5.50235      5.50235      1.50000         0.000001     -0.000003     -0.018885
      4.12676      1.37559      3.44537        -0.000001      0.000001      0.001133
      2.75117      5.50235      1.50000        -0.000003     -0.000003     -0.018885
      8.25352      2.75117      1.50000         0.000004      0.000001     -0.018876
      5.50235      2.75117      1.50000         0.000002      0.000001     -0.018879
      2.75117      2.75117      1.50000        -0.000005      0.000000     -0.018884
      0.00000      2.75117      1.50000        -0.000002     -0.000000     -0.018869
      8.25352      0.00000      1.50000         0.000003      0.000002     -0.018881
      5.50235      0.00000      1.50000         0.000001      0.000001     -0.018887
      2.75117      0.00000      1.50000        -0.000005      0.000001     -0.018885
      0.00000      5.50235      1.50000        -0.000002     -0.000004     -0.018875
      6.87793      1.37559      3.44537         0.000003      0.000002      0.001130
      9.62910      1.37559      3.44537         0.000001      0.000004      0.001125
      1.37559      4.12676      3.44537        -0.000004     -0.000002      0.001128
      2.75117      2.75117      5.39075         0.000000      0.000002     -0.000108
      0.00000      2.75117      5.39075        -0.000001      0.000006     -0.000111
      8.25352      0.00000      5.39075        -0.000003      0.000000     -0.000110
      5.50235      0.00000      5.39075         0.000000      0.000001     -0.000105
      2.75117      0.00000      5.39075         0.000002      0.000001     -0.000109
      0.00000      0.00000      5.39075         0.000001      0.000000     -0.000112
      9.62910      9.62910      3.44537         0.000001     -0.000000      0.001127
      6.87793      9.62910      3.44537         0.000002      0.000002      0.001132
      4.12676      9.62910      3.44537        -0.000001      0.000001      0.001132
      1.37559      9.62910      3.44537        -0.000002      0.000001      0.001128
      9.62910      6.87793      3.44537         0.000002     -0.000002      0.001130
      6.87793      6.87793      3.44537         0.000004     -0.000001      0.001133
      4.12676      6.87793      3.44537        -0.000002     -0.000000      0.001132
      1.37559      6.87793      3.44537        -0.000004     -0.000001      0.001129
      9.62910      4.12676      3.44537         0.000001     -0.000001      0.001127
      6.87793      4.12676      3.44537         0.000004     -0.000002      0.001131
      4.12676      4.12676      3.44537        -0.000001     -0.000002      0.001132
      5.50235      8.25352      9.28149         0.000001     -0.000003      0.019353
      8.25352      8.25352      9.28149        -0.000005     -0.000003      0.019358
 -----------------------------------------------------------------------------------
    total drift:                                0.000000     -0.000000      0.015011


--------------------------------------------------------------------------------------------------------



  FREE ENERGIE OF THE ION-ELECTRON SYSTEM (eV)
  ---------------------------------------------------
  free  energy   TOTEN  =      -434.40829111 eV

  energy  without entropy=     -434.32378860  energy(sigma->0) =     -434.38012361
 


--------------------------------------------------------------------------------------------------------


    POTLOK:  cpu time      3.7110: real time      3.7210


--------------------------------------------------------------------------------------------------------




--------------------------------------------------------------------------------------------------------


  
 reached required accuracy - stopping structural energy minimisation
     LOOP+:  cpu time  24588.5040: real time  24751.5867
 vacuum level on the upper side and lower side of the slab         5.082         5.051
    4ORBIT:  cpu time      0.0000: real time      0.0000



 total charge

# of ion       s       p       d       tot
------------------------------------------
    1        0.293   6.107   8.047  14.448
    2        0.318   6.182   7.972  14.473
    3        0.318   6.182   7.972  14.473
    4        0.318   6.182   7.972  14.473
    5        0.318   6.182   7.972  14.473
    6        0.318   6.182   7.972  14.473
    7        0.318   6.182   7.972  14.473
    8        0.318   6.182   7.972  14.473
    9        0.318   6.182   7.972  14.473
   10        0.318   6.182   7.972  14.473
   11        0.318   6.182   7.972  14.473
   12        0.325   6.184   7.968  14.477
   13        0.325   6.184   7.968  14.477
   14        0.325   6.184   7.968  14.477
   15        0.325   6.184   7.968  14.477
   16        0.325   6.184   7.968  14.477
   17        0.325   6.184   7.968  14.477
   18        0.318   6.182   7.972  14.473
   19        0.325   6.184   7.968  14.477
   20        0.318   6.182   7.972  14.473
   21        0.318   6.182   7.972  14.473
   22        0.293   6.107   8.048  14.448
   23        0.293   6.107   8.048  14.448
   24        0.293   6.107   8.048  14.448
   25        0.293   6.107   8.048  14.448
   26        0.293   6.107   8.048  14.448
   27        0.293   6.107   8.048  14.448
   28        0.293   6.107   8.048  14.448
   29        0.318   6.182   7.972  14.473
   30        0.293   6.107   8.048  14.448
   31        0.293   6.107   8.048  14.448
   32        0.293   6.107   8.048  14.448
   33        0.293   6.107   8.048  14.448
   34        0.293   6.107   8.048  14.448
   35        0.293   6.107   8.048  14.448
   36        0.318   6.182   7.972  14.473
   37        0.318   6.182   7.972  14.473
   38        0.293   6.107   8.048  14.448
   39        0.325   6.184   7.968  14.477
   40        0.325   6.184   7.968  14.477
   41        0.325   6.184   7.968  14.477
   42        0.318   6.182   7.972  14.472
   43        0.293   6.107   8.047  14.448
   44        0.293   6.107   8.047  14.448
   45        0.293   6.107   8.047  14.448
   46        0.293   6.107   8.047  14.448
   47        0.293   6.107   8.047  14.448
   48        0.293   6.107   8.047  14.448
   49        0.318   6.182   7.972  14.472
   50        0.293   6.107   8.047  14.448
   51        0.293   6.107   8.047  14.448
   52        0.293   6.107   8.047  14.448
   53        0.293   6.107   8.047  14.448
   54        0.293   6.107   8.047  14.448
   55        0.293   6.107   8.047  14.448
   56        0.293   6.107   8.047  14.448
   57        0.293   6.107   8.047  14.448
   58        0.293   6.107   8.047  14.448
   59        0.318   6.182   7.972  14.472
   60        0.318   6.182   7.972  14.472
   61        0.318   6.182   7.972  14.472
   62        0.325   6.184   7.968  14.477
   63        0.325   6.184   7.968  14.477
   64        0.325   6.184   7.968  14.477
   65        0.325   6.184   7.968  14.477
   66        0.325   6.184   7.968  14.477
   67        0.325   6.184   7.968  14.477
   68        0.318   6.182   7.972  14.472
   69        0.318   6.182   7.972  14.472
   70        0.318   6.182   7.972  14.472
   71        0.318   6.182   7.972  14.472
   72        0.318   6.182   7.972  14.472
   73        0.318   6.182   7.972  14.472
   74        0.318   6.182   7.972  14.472
   75        0.318   6.182   7.972  14.472
   76        0.318   6.182   7.972  14.472
   77        0.318   6.182   7.972  14.472
   78        0.318   6.182   7.972  14.472
   79        0.293   6.107   8.048  14.448
   80        0.293   6.107   8.048  14.448
--------------------------------------------------
tot         24.785 492.184 640.1291157.098



 magnetization (x)

# of ion       s       p       d       tot
------------------------------------------
    1        0.000  -0.001   0.213   0.212
    2       -0.001  -0.002   0.295   0.292
    3       -0.001  -0.002   0.295   0.292
    4       -0.001  -0.002   0.295   0.292
    5       -0.001  -0.002   0.295   0.292
    6       -0.001  -0.002   0.295   0.292
    7       -0.001  -0.002   0.295   0.292
    8       -0.001  -0.002   0.295   0.292
    9       -0.001  -0.002   0.295   0.292
   10       -0.001  -0.002   0.295   0.292
   11       -0.001  -0.002   0.295   0.292
   12       -0.001  -0.003   0.374   0.371
   13       -0.001  -0.003   0.374   0.371
   14       -0.001  -0.003   0.374   0.371
   15       -0.001  -0.003   0.374   0.371
   16       -0.001  -0.003   0.374   0.371
   17       -0.001  -0.003   0.374   0.371
   18       -0.001  -0.002   0.295   0.292
   19       -0.001  -0.003   0.374   0.371
   20       -0.001  -0.002   0.295   0.292
   21       -0.001  -0.002   0.295   0.292
   22        0.000  -0.001   0.213   0.212
   23        0.000  -0.001   0.213   0.212
   24        0.000  -0.001   0.213   0.212
   25        0.000  -0.001   0.213   0.212
   26        0.000  -0.001   0.213   0.212
   27        0.000  -0.001   0.213   0.212
   28        0.000  -0.001   0.213   0.212
   29       -0.001  -0.002   0.295   0.292
   30        0.000  -0.001   0.213   0.212
   31        0.000  -0.001   0.213   0.212
   32        0.000  -0.001   0.213   0.212
   33        0.000  -0.001   0.213   0.212
   34        0.000  -0.001   0.213   0.212
   35        0.000  -0.001   0.213   0.212
   36       -0.001  -0.002   0.295   0.292
   37       -0.001  -0.002   0.295   0.292
   38        0.000  -0.001   0.213   0.212
   39       -0.001  -0.003   0.374   0.371
   40       -0.001  -0.003   0.374   0.371
   41       -0.001  -0.003   0.374   0.371
   42       -0.001  -0.002   0.295   0.292
   43        0.000  -0.001   0.213   0.212
   44        0.000  -0.001   0.213   0.212
   45        0.000  -0.001   0.213   0.212
   46        0.000  -0.001   0.213   0.212
   47        0.000  -0.001   0.213   0.212
   48        0.000  -0.001   0.213   0.212
   49       -0.001  -0.002   0.295   0.292
   50        0.000  -0.001   0.213   0.212
   51        0.000  -0.001   0.213   0.212
   52        0.000  -0.001   0.213   0.212
   53        0.000  -0.001   0.213   0.212
   54        0.000  -0.001   0.213   0.212
   55        0.000  -0.001   0.213   0.212
   56        0.000  -0.001   0.213   0.212
   57        0.000  -0.001   0.213   0.212
   58        0.000  -0.001   0.213   0.212
   59       -0.001  -0.002   0.295   0.292
   60       -0.001  -0.002   0.295   0.292
   61       -0.001  -0.002   0.295   0.292
   62       -0.001  -0.003   0.374   0.371
   63       -0.001  -0.003   0.374   0.371
   64       -0.001  -0.003   0.374   0.371
   65       -0.001  -0.003   0.374   0.371
   66       -0.001  -0.003   0.374   0.371
   67       -0.001  -0.003   0.374   0.371
   68       -0.001  -0.002   0.295   0.292
   69       -0.001  -0.002   0.295   0.292
   70       -0.001  -0.002   0.295   0.292
   71       -0.001  -0.002   0.295   0.292
   72       -0.001  -0.002   0.295   0.292
   73       -0.001  -0.002   0.295   0.292
   74       -0.001  -0.002   0.295   0.292
   75       -0.001  -0.002   0.295   0.292
   76       -0.001  -0.002   0.295   0.292
   77       -0.001  -0.002   0.295   0.292
   78       -0.001  -0.002   0.295   0.292
   79        0.000  -0.001   0.213   0.212
   80        0.000  -0.001   0.213   0.212
--------------------------------------------------
tot         -0.021  -0.161  22.235  22.053
 

 total amount of memory used by VASP MPI-rank0  1143026. kBytes
=======================================================================

   base      :      30000. kBytes
   nonlr-proj:      69580. kBytes
   fftplans  :     114729. kBytes
   grid      :     174857. kBytes
   one-center:       2488. kBytes
   wavefun   :     751372. kBytes
 
  
  
 General timing and accounting informations for this job:
 ========================================================
  
                  Total CPU time used (sec):    24658.414
                            User time (sec):    24395.529
                          System time (sec):      262.886
                         Elapsed time (sec):    24821.910
  
                   Maximum memory used (kb):     1560512.
                   Average memory used (kb):          N/A
  
                          Minor page faults:     41426961
                          Major page faults:           19
                 Voluntary context switches:      6386404
