       N       E                     dE             d eps       ncg     rms          rms(c)
DAV:   1     0.792122484642E+03    0.79212E+03   -0.41265E+04 13864   0.201E+03
DAV:   2     0.778173389776E+01   -0.78434E+03   -0.75709E+03 14048   0.587E+02
DAV:   3    -0.213753911332E+02   -0.29157E+02   -0.28484E+02 15032   0.118E+02
DAV:   4    -0.216941476801E+02   -0.31876E+00   -0.31869E+00 14448   0.131E+01
DAV:   5    -0.216992603902E+02   -0.51127E-02   -0.51127E-02 14880   0.162E+00    0.108E+01
DAV:   6    -0.208297051941E+02    0.86956E+00   -0.37564E+00 14424   0.137E+01    0.229E+00
DAV:   7    -0.208287240519E+02    0.98114E-03   -0.39017E-02 14432   0.147E+00    0.152E+00
DAV:   8    -0.208271464600E+02    0.15776E-02   -0.45369E-03 14688   0.551E-01    0.837E-01
DAV:   9    -0.208276481645E+02   -0.50170E-03   -0.25902E-03 14280   0.425E-01    0.864E-02
DAV:  10    -0.208278968791E+02   -0.24871E-03   -0.29568E-04 15104   0.131E-01    0.842E-02
DAV:  11    -0.208279473762E+02   -0.50497E-04   -0.27080E-05 14656   0.335E-02    0.679E-02
DAV:  12    -0.208280137369E+02   -0.66361E-04   -0.15253E-04 14152   0.696E-02    0.868E-03
DAV:  13    -0.208280197164E+02   -0.59796E-05   -0.42457E-06 12528   0.156E-02    0.584E-03
DAV:  14    -0.208280209946E+02   -0.12782E-05   -0.61247E-07  7424   0.578E-03    0.265E-03
DAV:  15    -0.208280225012E+02   -0.15066E-05   -0.29291E-07  7336   0.354E-03    0.123E-03
DAV:  16    -0.208280226598E+02   -0.15864E-06   -0.49357E-08  7240   0.168E-03
   1 F= -.23448948E+02 E0= -.23448905E+02  d E =-.128514E-03  mag=     0.9585
