 vasp.6.4.3 19Mar24 (build Nov 27 2025 15:18:09) complex                         
 executed on              LinuxNV date 2026.06.04  16:33:42
 running    4 mpi-ranks, with    1 threads/rank, on    1 nodes
 distrk:  each k-point on    4 cores,    1 groups
 distr:  one band on NCORE=   1 cores,    4 groups
 OpenACC runtime initialized ...    0 GPUs detected


--------------------------------------------------------------------------------------------------------


 INCAR:
   SYSTEM = pddmc
   ENCUT = 550
   PREC = Accurate
   LASPH = .TRUE.
   ADDGRID = .TRUE.
   ISPIN = 2
   IVDW = 12
   EDIFF = 1e-06
   NELM = 200
   NELMIN = 5
   ALGO = Normal
   NCORE = 1
   LREAL = .FALSE.
   LWAVE = .FALSE.
   LCHARG = .FALSE.
   LORBIT = 11
   ISYM = 2
   IBRION = -1
   NSW = 0
   ISIF = 0
   ISMEAR = 1
   SIGMA = 0.1
   EDIFFG = -0.01

 POTCAR:    PAW_PBE Pd_pv 28Jan2005               
 -----------------------------------------------------------------------------
|                                                                             |
|           W    W    AA    RRRRR   N    N  II  N    N   GGGG   !!!           |
|           W    W   A  A   R    R  NN   N  II  NN   N  G    G  !!!           |
|           W    W  A    A  R    R  N N  N  II  N N  N  G       !!!           |
|           W WW W  AAAAAA  RRRRR   N  N N  II  N  N N  G  GGG   !            |
|           WW  WW  A    A  R   R   N   NN  II  N   NN  G    G                |
|           W    W  A    A  R    R  N    N  II  N    N   GGGG   !!!           |
|                                                                             |
|     You use a magnetic or noncollinear calculation, but did not specify     |
|     the initial magnetic moment with the MAGMOM tag. Note that a            |
|     default of 1 will be used for all atoms. This ferromagnetic setup       |
|     may break the symmetry of the crystal, in particular it may rule        |
|     out finding an antiferromagnetic solution. Thence, we recommend         |
|     setting the initial magnetic moment manually or verifying carefully     |
|     that this magnetic setup is desired.                                    |
|                                                                             |
 -----------------------------------------------------------------------------

 POTCAR:    PAW_PBE Pd_pv 28Jan2005               
   SHA256 =  3ce661545bbde58da9a95410dea32907db2844916708bcd35bbe03ee66324d7f Pd_pv/POTCAR          
   COPYR  = (c) Copyright 28Jan2005 Georg Kresse                                                    
   COPYR  = This file is part of the software VASP. Any use, copying, and all other rights are regul
   COPYR  = If you do not have a valid VASP license, you may not use, copy or distribute this file. 
   VRHFIN =Pd: 4p5s4d                                                                               
   LEXCH  = PE                                                                                      
   EATOM  =  2621.5550 eV,  192.6789 Ry                                                             
                                                                                                    
   TITEL  = PAW_PBE Pd_pv 28Jan2005                                                                 
   LULTRA =        F    use ultrasoft PP ?                                                          
   IUNSCR =        1    unscreen: 0-lin 1-nonlin 2-no                                               
   RPACOR =    2.250    partial core radius                                                         
   POMASS =  106.420; ZVAL   =   16.000    mass and valenz                                          
   RCORE  =    2.400    outmost cutoff radius                                                       
   RWIGS  =    2.300; RWIGS  =    1.217    wigner-seitz radius (au A)                               
   ENMAX  =  250.925; ENMIN  =  188.194 eV                                                          
   ICORE  =        3    local potential                                                             
   LCOR   =        T    correct aug charges                                                         
   LPAW   =        T    paw PP                                                                      
   EAUG   =  473.067                                                                                
   DEXC   =    0.000                                                                                
   RMAX   =    2.449    core radius for proj-oper                                                   
   RAUG   =    1.300    factor for augmentation sphere                                              
   RDEP   =    2.405    radius for radial grids                                                     
   RDEPT  =    1.966    core radius for aug-charge                                                  
                                                                                                    
   Atomic configuration                                                                             
   11 entries                                                                                       
     n  l   j            E        occ.                                                              
     1  0  0.50    -24164.6632   2.0000                                                             
     2  0  0.50     -3530.9218   2.0000                                                             
     2  1  1.50     -3165.6822   6.0000                                                             
     3  0  0.50      -639.4578   2.0000                                                             
     3  1  1.50      -519.4532   6.0000                                                             
     3  2  2.50      -328.9758  10.0000                                                             
     4  0  0.50       -88.7014   2.0000                                                             
     4  1  1.50       -54.4541   6.0000                                                             
     4  2  2.50        -6.6878   9.0000                                                             
     5  0  0.50        -4.3543   1.0000                                                             
     4  3  2.50        -1.3606   0.0000                                                             
   Description                                                                                      
     l       E           TYP  RCUT    TYP  RCUT                                                     
     1    -54.4540524     23  2.100                                                                 
     1      4.0817478     23  2.100                                                                 
     2     -6.6878326     23  2.400                                                                 
     2     -4.0817478     23  2.400                                                                 
     0     -4.3542962     23  2.400                                                                 
     0     13.6058260     23  2.400                                                                 
     3     -5.4423304     23  2.400                                                                 
  local pseudopotential read in
  partial core-charges read in
  partial kinetic energy density read in
  atomic valenz-charges read in
  non local Contribution for L=            1  read in
    real space projection operators read in
  non local Contribution for L=            1  read in
    real space projection operators read in
  non local Contribution for L=            2  read in
    real space projection operators read in
  non local Contribution for L=            2  read in
    real space projection operators read in
  non local Contribution for L=            0  read in
    real space projection operators read in
  non local Contribution for L=            0  read in
    real space projection operators read in
    PAW grid and wavefunctions read in
 
   number of l-projection  operators is LMAX  =            6
   number of lm-projection operators is LMMAX =           18
 
  PAW_PBE Pd_pv 28Jan2005               :
 energy of atom  1       EATOM=-2621.5550
 kinetic energy error for atom=    0.0074 (will be added to EATOM!!)
 
 
 POSCAR: Pd
  positions in cartesian coordinates
  No initial velocities read in
 IVDW         = 12
 VDW_S6       =    1.0000
 VDW_S8       =    0.7875
 VDW_A1       =    0.4289
 VDW_A2       =    4.4407
 VDW_RADIUS   =   50.2022 A
 VDW_CNRADIUS =   21.1671 A


 exchange-correlation table for PE
   RHO(1)=    0.500       N(1)  =     2000
   RHO(2)=  100.500       N(2)  =     4000
 


--------------------------------------------------------------------------------------------------------


 ion  position               nearest neighbor table
   1  0.000  0.000  0.000-   2 2.77   3 2.77   2 2.77   3 2.77   2 2.77   4 2.77   2 2.77   3 2.77
                             4 2.77   3 2.77   4 2.77   4 2.77
   2  0.000  0.500  0.500-   1 2.77   4 2.77   1 2.77   4 2.77   1 2.77   3 2.77   1 2.77   3 2.77
                             4 2.77   4 2.77   3 2.77   3 2.77
   3  0.500  0.000  0.500-   1 2.77   4 2.77   1 2.77   4 2.77   2 2.77   4 2.77   4 2.77   1 2.77
                             2 2.77   1 2.77   2 2.77   2 2.77
   4  0.500  0.500  0.000-   2 2.77   3 2.77   2 2.77   3 2.77   1 2.77   3 2.77   3 2.77   1 2.77
                             2 2.77   2 2.77   1 2.77   1 2.77
 
  LATTYP: Found a simple cubic cell.
 ALAT       =     3.9173015750
  
  Lattice vectors:
  
 A1 = (   3.9173015750,   0.0000000000,   0.0000000000)
 A2 = (   0.0000000000,   3.9173015750,   0.0000000000)
 A3 = (   0.0000000000,   0.0000000000,   3.9173015750)


Analysis of symmetry for initial positions (statically):
=====================================================================
 Subroutine PRICEL returns following result:
 
  LATTYP: Found a face centered cubic cell.
 ALAT       =     3.9173015750
  
  Lattice vectors:
  
 A1 = (   1.9586507875,  -1.9586507875,   0.0000000000)
 A2 = (   1.9586507875,   0.0000000000,   1.9586507875)
 A3 = (   0.0000000000,  -1.9586507875,   1.9586507875)
 
   4 primitive cells build up your supercell.
 

 Routine SETGRP: Setting up the symmetry group for a 
 simple cubic supercell.


 Subroutine GETGRP returns: Found 48 space group operations
 (whereof 48 operations were pure point group operations)
 out of a pool of 48 trial point group operations.


The static configuration has the point symmetry O_h .


Analysis of symmetry for dynamics (positions and initial velocities):
=====================================================================
 Subroutine PRICEL returns following result:
 
  LATTYP: Found a face centered cubic cell.
 ALAT       =     3.9173015750
  
  Lattice vectors:
  
 A1 = (   1.9586507875,  -1.9586507875,   0.0000000000)
 A2 = (   1.9586507875,   0.0000000000,   1.9586507875)
 A3 = (   0.0000000000,  -1.9586507875,   1.9586507875)
 
   4 primitive cells build up your supercell.
 

 Routine SETGRP: Setting up the symmetry group for a 
 simple cubic supercell.


 Subroutine GETGRP returns: Found 48 space group operations
 (whereof 48 operations were pure point group operations)
 out of a pool of 48 trial point group operations.


The dynamic configuration has the point symmetry O_h .


Analysis of structural, dynamic, and magnetic symmetry:
=====================================================================
 Subroutine PRICEL returns following result:
 
  LATTYP: Found a face centered cubic cell.
 ALAT       =     3.9173015750
  
  Lattice vectors:
  
 A1 = (   1.9586507875,  -1.9586507875,   0.0000000000)
 A2 = (   1.9586507875,   0.0000000000,   1.9586507875)
 A3 = (   0.0000000000,  -1.9586507875,   1.9586507875)
 
   4 primitive cells build up your supercell.
 

 Routine SETGRP: Setting up the symmetry group for a 
 simple cubic supercell.


 Subroutine GETGRP returns: Found 48 space group operations
 (whereof 48 operations were pure point group operations)
 out of a pool of 48 trial point group operations.


The overall configuration has the point symmetry O_h .


 Subroutine INISYM returns: Found 48 space group operations
 (whereof 48 operations are pure point group operations),
 and found     4 'primitive' translations


----------------------------------------------------------------------------------------

                                     Primitive cell                                     

  volume of cell :      15.0280

  direct lattice vectors                    reciprocal lattice vectors
     1.958650787 -1.958650787  0.000000000     0.255277767 -0.255277767 -0.255277767
     1.958650787  0.000000000  1.958650787     0.255277767  0.255277767  0.255277767
     0.000000000 -1.958650787  1.958650787    -0.255277767 -0.255277767  0.255277767

  length of vectors
     2.769950508  2.769950508  2.769950508     0.442154063  0.442154063  0.442154063

  position of ions in fractional coordinates (direct lattice)
     0.000000000  0.000000000  0.000000000

  ion indices of the primitive-cell ions
   primitive index   ion index
                 1           1

----------------------------------------------------------------------------------------

 
 
 KPOINTS: Automatic mesh                          

Automatic generation of k-mesh.
 Grid dimensions read from file:
 generate k-points for:   12   12   12

 Generating k-lattice:

  Cartesian coordinates                     Fractional coordinates (reciprocal lattice)
     0.021273147 -0.000000000  0.000000000     0.083333333 -0.000000000  0.000000000
     0.000000000  0.021273147  0.000000000     0.000000000  0.083333333  0.000000000
    -0.000000000 -0.000000000  0.021273147     0.000000000  0.000000000  0.083333333

  Length of vectors
     0.021273147  0.021273147  0.021273147

  Shift w.r.t. Gamma in fractional coordinates (k-lattice)
     0.000000000  0.000000000  0.000000000

 
 Subroutine IBZKPT returns following result:
 ===========================================
 
 Found     84 irreducible k-points:
 
 Following reciprocal coordinates:
            Coordinates               Weight
  0.000000  0.000000  0.000000      1.000000
  0.083333  0.000000  0.000000      6.000000
  0.166667  0.000000  0.000000      6.000000
  0.250000  0.000000  0.000000      6.000000
  0.333333  0.000000  0.000000      6.000000
  0.416667  0.000000  0.000000      6.000000
  0.500000  0.000000  0.000000      3.000000
  0.083333  0.083333  0.000000     12.000000
  0.166667  0.083333  0.000000     24.000000
  0.250000  0.083333  0.000000     24.000000
  0.333333  0.083333  0.000000     24.000000
  0.416667  0.083333  0.000000     24.000000
  0.500000  0.083333  0.000000     12.000000
  0.166667  0.166667  0.000000     12.000000
  0.250000  0.166667  0.000000     24.000000
  0.333333  0.166667  0.000000     24.000000
  0.416667  0.166667  0.000000     24.000000
  0.500000  0.166667  0.000000     12.000000
  0.250000  0.250000  0.000000     12.000000
  0.333333  0.250000  0.000000     24.000000
  0.416667  0.250000  0.000000     24.000000
  0.500000  0.250000  0.000000     12.000000
  0.333333  0.333333  0.000000     12.000000
  0.416667  0.333333  0.000000     24.000000
  0.500000  0.333333  0.000000     12.000000
  0.416667  0.416667  0.000000     12.000000
  0.500000  0.416667  0.000000     12.000000
  0.500000  0.500000  0.000000      3.000000
  0.083333  0.083333  0.083333      8.000000
  0.166667  0.083333  0.083333     24.000000
  0.250000  0.083333  0.083333     24.000000
  0.333333  0.083333  0.083333     24.000000
  0.416667  0.083333  0.083333     24.000000
  0.500000  0.083333  0.083333     12.000000
  0.166667  0.166667  0.083333     24.000000
  0.250000  0.166667  0.083333     48.000000
  0.333333  0.166667  0.083333     48.000000
  0.416667  0.166667  0.083333     48.000000
  0.500000  0.166667  0.083333     24.000000
  0.250000  0.250000  0.083333     24.000000
  0.333333  0.250000  0.083333     48.000000
  0.416667  0.250000  0.083333     48.000000
  0.500000  0.250000  0.083333     24.000000
  0.333333  0.333333  0.083333     24.000000
  0.416667  0.333333  0.083333     48.000000
  0.500000  0.333333  0.083333     24.000000
  0.416667  0.416667  0.083333     24.000000
  0.500000  0.416667  0.083333     24.000000
  0.500000  0.500000  0.083333      6.000000
  0.166667  0.166667  0.166667      8.000000
  0.250000  0.166667  0.166667     24.000000
  0.333333  0.166667  0.166667     24.000000
  0.416667  0.166667  0.166667     24.000000
  0.500000  0.166667  0.166667     12.000000
  0.250000  0.250000  0.166667     24.000000
  0.333333  0.250000  0.166667     48.000000
  0.416667  0.250000  0.166667     48.000000
  0.500000  0.250000  0.166667     24.000000
  0.333333  0.333333  0.166667     24.000000
  0.416667  0.333333  0.166667     48.000000
  0.500000  0.333333  0.166667     24.000000
  0.416667  0.416667  0.166667     24.000000
  0.500000  0.416667  0.166667     24.000000
  0.500000  0.500000  0.166667      6.000000
  0.250000  0.250000  0.250000      8.000000
  0.333333  0.250000  0.250000     24.000000
  0.416667  0.250000  0.250000     24.000000
  0.500000  0.250000  0.250000     12.000000
  0.333333  0.333333  0.250000     24.000000
  0.416667  0.333333  0.250000     48.000000
  0.500000  0.333333  0.250000     24.000000
  0.416667  0.416667  0.250000     24.000000
  0.500000  0.416667  0.250000     24.000000
  0.500000  0.500000  0.250000      6.000000
  0.333333  0.333333  0.333333      8.000000
  0.416667  0.333333  0.333333     24.000000
  0.500000  0.333333  0.333333     12.000000
  0.416667  0.416667  0.333333     24.000000
  0.500000  0.416667  0.333333     24.000000
  0.500000  0.500000  0.333333      6.000000
  0.416667  0.416667  0.416667      8.000000
  0.500000  0.416667  0.416667     12.000000
  0.500000  0.500000  0.416667      6.000000
  0.500000  0.500000  0.500000      1.000000
 
 Following cartesian coordinates:
            Coordinates               Weight
  0.000000  0.000000  0.000000      1.000000
  0.021273  0.000000  0.000000      6.000000
  0.042546  0.000000  0.000000      6.000000
  0.063819  0.000000  0.000000      6.000000
  0.085093  0.000000  0.000000      6.000000
  0.106366  0.000000  0.000000      6.000000
  0.127639  0.000000  0.000000      3.000000
  0.021273  0.021273  0.000000     12.000000
  0.042546  0.021273  0.000000     24.000000
  0.063819  0.021273  0.000000     24.000000
  0.085093  0.021273  0.000000     24.000000
  0.106366  0.021273  0.000000     24.000000
  0.127639  0.021273  0.000000     12.000000
  0.042546  0.042546  0.000000     12.000000
  0.063819  0.042546  0.000000     24.000000
  0.085093  0.042546  0.000000     24.000000
  0.106366  0.042546  0.000000     24.000000
  0.127639  0.042546  0.000000     12.000000
  0.063819  0.063819  0.000000     12.000000
  0.085093  0.063819  0.000000     24.000000
  0.106366  0.063819  0.000000     24.000000
  0.127639  0.063819  0.000000     12.000000
  0.085093  0.085093  0.000000     12.000000
  0.106366  0.085093  0.000000     24.000000
  0.127639  0.085093  0.000000     12.000000
  0.106366  0.106366  0.000000     12.000000
  0.127639  0.106366  0.000000     12.000000
  0.127639  0.127639  0.000000      3.000000
  0.021273  0.021273  0.021273      8.000000
  0.042546  0.021273  0.021273     24.000000
  0.063819  0.021273  0.021273     24.000000
  0.085093  0.021273  0.021273     24.000000
  0.106366  0.021273  0.021273     24.000000
  0.127639  0.021273  0.021273     12.000000
  0.042546  0.042546  0.021273     24.000000
  0.063819  0.042546  0.021273     48.000000
  0.085093  0.042546  0.021273     48.000000
  0.106366  0.042546  0.021273     48.000000
  0.127639  0.042546  0.021273     24.000000
  0.063819  0.063819  0.021273     24.000000
  0.085093  0.063819  0.021273     48.000000
  0.106366  0.063819  0.021273     48.000000
  0.127639  0.063819  0.021273     24.000000
  0.085093  0.085093  0.021273     24.000000
  0.106366  0.085093  0.021273     48.000000
  0.127639  0.085093  0.021273     24.000000
  0.106366  0.106366  0.021273     24.000000
  0.127639  0.106366  0.021273     24.000000
  0.127639  0.127639  0.021273      6.000000
  0.042546  0.042546  0.042546      8.000000
  0.063819  0.042546  0.042546     24.000000
  0.085093  0.042546  0.042546     24.000000
  0.106366  0.042546  0.042546     24.000000
  0.127639  0.042546  0.042546     12.000000
  0.063819  0.063819  0.042546     24.000000
  0.085093  0.063819  0.042546     48.000000
  0.106366  0.063819  0.042546     48.000000
  0.127639  0.063819  0.042546     24.000000
  0.085093  0.085093  0.042546     24.000000
  0.106366  0.085093  0.042546     48.000000
  0.127639  0.085093  0.042546     24.000000
  0.106366  0.106366  0.042546     24.000000
  0.127639  0.106366  0.042546     24.000000
  0.127639  0.127639  0.042546      6.000000
  0.063819  0.063819  0.063819      8.000000
  0.085093  0.063819  0.063819     24.000000
  0.106366  0.063819  0.063819     24.000000
  0.127639  0.063819  0.063819     12.000000
  0.085093  0.085093  0.063819     24.000000
  0.106366  0.085093  0.063819     48.000000
  0.127639  0.085093  0.063819     24.000000
  0.106366  0.106366  0.063819     24.000000
  0.127639  0.106366  0.063819     24.000000
  0.127639  0.127639  0.063819      6.000000
  0.085093  0.085093  0.085093      8.000000
  0.106366  0.085093  0.085093     24.000000
  0.127639  0.085093  0.085093     12.000000
  0.106366  0.106366  0.085093     24.000000
  0.127639  0.106366  0.085093     24.000000
  0.127639  0.127639  0.085093      6.000000
  0.106366  0.106366  0.106366      8.000000
  0.127639  0.106366  0.106366     12.000000
  0.127639  0.127639  0.106366      6.000000
  0.127639  0.127639  0.127639      1.000000
 


--------------------------------------------------------------------------------------------------------




 Dimension of arrays:
   k-points           NKPTS =     84   k-points in BZ     NKDIM =     84   number of bands    NBANDS=     40
   number of dos      NEDOS =    301   number of ions     NIONS =      4
   non local maximal  LDIM  =      6   non local SUM 2l+1 LMDIM =     18
   total plane-waves  NPLWV =  27000
   max r-space proj   IRMAX =      1   max aug-charges    IRDMAX= 144038
   dimension x,y,z NGX =    30 NGY =   30 NGZ =   30
   dimension x,y,z NGXF=    60 NGYF=   60 NGZF=   60
   support grid    NGXF=   120 NGYF=  120 NGZF=  120
   ions per type =               4
   NGX,Y,Z   is equivalent  to a cutoff of  12.73, 12.73, 12.73 a.u.
   NGXF,Y,Z  is equivalent  to a cutoff of  25.46, 25.46, 25.46 a.u.

 SYSTEM =  pddmc                                   
 POSCAR =  Pd                                      

 Startparameter for this run:
   NWRITE =      2    write-flag & timer
   PREC   = accura    normal or accurate (medium, high low for compatibility)
   ISTART =      0    job   : 0-new  1-cont  2-samecut
   ICHARG =      2    charge: 1-file 2-atom 10-const
   ISPIN  =      2    spin polarized calculation?
   LNONCOLLINEAR =      F non collinear calculations
   LSORBIT =      F    spin-orbit coupling
   INIWAV =      1    electr: 0-lowe 1-rand  2-diag
   LASPH  =      T    aspherical Exc in radial PAW
 Electronic Relaxation 1
   ENCUT  =  550.0 eV  40.42 Ry    6.36 a.u.   7.49  7.49  7.49*2*pi/ulx,y,z
   ENINI  =  550.0     initial cutoff
   ENAUG  =  473.1 eV  augmentation charge cutoff
   NELM   =    200;   NELMIN=  5; NELMDL= -5     # of ELM steps 
   EDIFF  = 0.1E-05   stopping-criterion for ELM
   LREAL  =      F    real-space projection
   NLSPLINE    = F    spline interpolate recip. space projectors
   LCOMPAT=      F    compatible to vasp.4.4
   GGA_COMPAT  = T    GGA compatible to vasp.4.4-vasp.4.6
   LMAXPAW     = -100 max onsite density
   LMAXMIX     =    2 max onsite mixed and CHGCAR
   VOSKOWN=      0    Vosko Wilk Nusair interpolation
   ROPT   =    0.00000
 Ionic relaxation
   EDIFFG = -.1E-01   stopping-criterion for IOM
   NSW    =      0    number of steps for IOM
   NBLOCK =      1;   KBLOCK =      1    inner block; outer block 
   IBRION =     -1    ionic relax: 0-MD 1-quasi-New 2-CG
   NFREE  =      0    steps in history (QN), initial steepest desc. (CG)
   ISIF   =      0    stress and relaxation
   IWAVPR =     10    prediction:  0-non 1-charg 2-wave 3-comb
   ISYM   =      2    0-nonsym 1-usesym 2-fastsym
   LCORR  =      T    Harris-Foulkes like correction to forces

   POTIM  = 0.5000    time-step for ionic-motion
   TEIN   =    0.0    initial temperature
   TEBEG  =    0.0;   TEEND  =   0.0 temperature during run
   SMASS  =  -3.00    Nose mass-parameter (am)
   estimated Nose-frequenzy (Omega)   =  0.10E-29 period in steps = 0.13E+47 mass=  -0.351E-27a.u.
   SCALEE = 1.0000    scale energy and forces
   NPACO  =    256;   APACO  = 10.0  distance and # of slots for P.C.
   PSTRESS=    0.0 pullay stress

  Mass of Ions in am
   POMASS = 106.42
  Ionic Valenz
   ZVAL   =  16.00
  Atomic Wigner-Seitz radii
   RWIGS  =  -1.00
  virtual crystal weights 
   VCA    =   1.00
   NELECT =      64.0000    total number of electrons
   NUPDOWN=      -1.0000    fix difference up-down

 DOS related values:
   EMIN   =  10.00;   EMAX   =-10.00  energy-range for DOS
   EFERMI =   0.00;   METHOD = LEGACY      
   ISMEAR =     1;   SIGMA  =   0.10  broadening in eV -4-tet -1-fermi 0-gaus

 Electronic relaxation 2 (details)
   IALGO  =     38    algorithm
   LDIAG  =      T    sub-space diagonalisation (order eigenvalues)
   LSUBROT=      F    optimize rotation matrix (better conditioning)
   TURBO    =      0    0=normal 1=particle mesh
   IRESTART =      0    0=no restart 2=restart with 2 vectors
   NREBOOT  =      0    no. of reboots
   NMIN     =      0    reboot dimension
   EREF     =   0.00    reference energy to select bands
   IMIX   =      4    mixing-type and parameters
     AMIX     =   0.40;   BMIX     =  1.00
     AMIX_MAG =   1.60;   BMIX_MAG =  1.00
     AMIN     =   0.10
     WC   =   100.;   INIMIX=   1;  MIXPRE=   1;  MAXMIX= -45

 Intra band minimization:
   WEIMIN = 0.0000     energy-eigenvalue tresh-hold
   EBREAK =  0.62E-08  absolut break condition
   DEPER  =   0.30     relativ break condition  

   TIME   =   0.40     timestep for ELM

  volume/ion in A,a.u.               =      15.03       101.41
  Fermi-wavevector in a.u.,A,eV,Ry     =   1.671659  3.158978 38.020738  2.794445
  Thomas-Fermi vector in A             =   2.756943
 
 Write flags
   LWAVE        =      F    write WAVECAR
   LDOWNSAMPLE  =      F    k-point downsampling of WAVECAR
   LCHARG       =      F    write CHGCAR
   LVTOT        =      F    write LOCPOT, total local potential
   LVHAR        =      F    write LOCPOT, Hartree potential only
   WRT_POTENTIAL= false  ! write potential to hdf5 file
   LELF         =      F    write electronic localiz. function (ELF)
   LORBIT       =     11    0 simple, 1 ext, 2 COOP (PROOUT), +10 PAW based schemes


 Dipole corrections
   LMONO      =      F    monopole corrections only (constant potential shift)
   LDIPOL     =      F    correct potential (dipole corrections)
   IDIPOL     =      0    1-x, 2-y, 3-z, 4-all directions 
   EPSILON    =  1.0000000 bulk dielectric constant
   LVACPOTAV  =      F  vacuum potentials using an averaging scheme for the charge density
   VACPOTFLAT =  0.1000000 required flatness to determine vacuum potential
 Exchange correlation treatment:
   GGA     = PE    functional components
   XC_C    = 1    coefficients multiplying the functional components
   LIBXC   =     F    Libxc                    
   VOSKOWN =     0    Vosko Wilk Nusair interpolation
   LHFCALC =     F    Hartree Fock is set to
   LHFONE  =     F    Hartree Fock one center treatment
   AEXX    =    0.0000 exact exchange contribution

 Parameters of functionals:
   PE:
     No parameter
 
 Van der Waals corrections
   IVDW    =    12    specifies the selected vdW correction

 Linear response parameters
   LEPSILON=     F    determine dielectric tensor
   LRPA    =     F    only Hartree local field effects (RPA)
   LNABLA  =     F    use nabla operator in PAW spheres
   LVEL    =     F    velocity operator in full k-point grid
   CSHIFT  =0.1000    complex shift for real part using Kramers Kronig
   OMEGAMAX=  -1.0    maximum frequency
   DEG_THRESHOLD= 0.2000000E-02 threshold for treating states as degnerate
   RTIME   =   -0.100 relaxation time in fs
  (WPLASMAI=    0.000 imaginary part of plasma frequency in eV, 0.658/RTIME)
   DFIELD  = 0.0000000 0.0000000 0.0000000 field for delta impulse in time
 
  Optional k-point grid parameters
   LKPOINTS_OPT  =     F    use optional k-point grid
   KPOINTS_OPT_MODE=     1    mode for optional k-point grid
 
 Orbital magnetization related:
   ORBITALMAG=     F  switch on orbital magnetization
   LCHIMAG   =     F  perturbation theory with respect to B field
   DQ        =  0.001000  dq finite difference perturbation B field
   LLRAUG    =     F  two centre corrections for induced B field
   LBONE     =     F  B-component reconstruction in AE one-centre
   LVGVCALC  =     T  calculate vGv susceptibility
   LVGVAPPL  =     F  apply vGv susceptibility instead of pGv for G=0

 Random number generation:
   RANDOM_GENERATOR = DEFAULT
   PCG_SEED         = not used


--------------------------------------------------------------------------------------------------------


 Static calculation
 charge density and potential will be updated during run
 spin polarized calculation
 Variant of blocked Davidson
 Davidson routine will perform the subspace rotation
 perform sub-space diagonalisation
    after iterative eigenvector-optimisation
 modified Broyden-mixing scheme, WC =      100.0
 initial mixing is a Kerker type mixing with AMIX =  0.4000 and BMIX =      1.0000
 Hartree-type preconditioning will be used
 using additional bands             8
 reciprocal scheme for non local part
 use partial core corrections
 calculate Harris-corrections to forces 
   (improved forces if not selfconsistent)
 use gradient corrections 
 use of overlap-Matrix (Vanderbilt PP)
 Methfessel and Paxton  Order N= 1 SIGMA  =   0.10


--------------------------------------------------------------------------------------------------------


  energy-cutoff  :      550.00
  volume of cell :       60.11
      direct lattice vectors                 reciprocal lattice vectors
     3.917301575  0.000000000  0.000000000     0.255277767 -0.000000000  0.000000000
     0.000000000  3.917301575  0.000000000     0.000000000  0.255277767  0.000000000
     0.000000000  0.000000000  3.917301575    -0.000000000 -0.000000000  0.255277767

  length of vectors
     3.917301575  3.917301575  3.917301575     0.255277767  0.255277767  0.255277767


 
 k-points in units of 2pi/SCALE and weight: Automatic mesh                          
   0.00000000  0.00000000  0.00000000       0.001
   0.02127315  0.00000000  0.00000000       0.003
   0.04254629  0.00000000  0.00000000       0.003
   0.06381944  0.00000000  0.00000000       0.003
   0.08509259  0.00000000  0.00000000       0.003
   0.10636574  0.00000000  0.00000000       0.003
   0.12763888  0.00000000  0.00000000       0.002
   0.02127315  0.02127315  0.00000000       0.007
   0.04254629  0.02127315  0.00000000       0.014
   0.06381944  0.02127315  0.00000000       0.014
   0.08509259  0.02127315  0.00000000       0.014
   0.10636574  0.02127315  0.00000000       0.014
   0.12763888  0.02127315  0.00000000       0.007
   0.04254629  0.04254629  0.00000000       0.007
   0.06381944  0.04254629  0.00000000       0.014
   0.08509259  0.04254629  0.00000000       0.014
   0.10636574  0.04254629  0.00000000       0.014
   0.12763888  0.04254629  0.00000000       0.007
   0.06381944  0.06381944  0.00000000       0.007
   0.08509259  0.06381944  0.00000000       0.014
   0.10636574  0.06381944  0.00000000       0.014
   0.12763888  0.06381944  0.00000000       0.007
   0.08509259  0.08509259  0.00000000       0.007
   0.10636574  0.08509259  0.00000000       0.014
   0.12763888  0.08509259  0.00000000       0.007
   0.10636574  0.10636574  0.00000000       0.007
   0.12763888  0.10636574  0.00000000       0.007
   0.12763888  0.12763888  0.00000000       0.002
   0.02127315  0.02127315  0.02127315       0.005
   0.04254629  0.02127315  0.02127315       0.014
   0.06381944  0.02127315  0.02127315       0.014
   0.08509259  0.02127315  0.02127315       0.014
   0.10636574  0.02127315  0.02127315       0.014
   0.12763888  0.02127315  0.02127315       0.007
   0.04254629  0.04254629  0.02127315       0.014
   0.06381944  0.04254629  0.02127315       0.028
   0.08509259  0.04254629  0.02127315       0.028
   0.10636574  0.04254629  0.02127315       0.028
   0.12763888  0.04254629  0.02127315       0.014
   0.06381944  0.06381944  0.02127315       0.014
   0.08509259  0.06381944  0.02127315       0.028
   0.10636574  0.06381944  0.02127315       0.028
   0.12763888  0.06381944  0.02127315       0.014
   0.08509259  0.08509259  0.02127315       0.014
   0.10636574  0.08509259  0.02127315       0.028
   0.12763888  0.08509259  0.02127315       0.014
   0.10636574  0.10636574  0.02127315       0.014
   0.12763888  0.10636574  0.02127315       0.014
   0.12763888  0.12763888  0.02127315       0.003
   0.04254629  0.04254629  0.04254629       0.005
   0.06381944  0.04254629  0.04254629       0.014
   0.08509259  0.04254629  0.04254629       0.014
   0.10636574  0.04254629  0.04254629       0.014
   0.12763888  0.04254629  0.04254629       0.007
   0.06381944  0.06381944  0.04254629       0.014
   0.08509259  0.06381944  0.04254629       0.028
   0.10636574  0.06381944  0.04254629       0.028
   0.12763888  0.06381944  0.04254629       0.014
   0.08509259  0.08509259  0.04254629       0.014
   0.10636574  0.08509259  0.04254629       0.028
   0.12763888  0.08509259  0.04254629       0.014
   0.10636574  0.10636574  0.04254629       0.014
   0.12763888  0.10636574  0.04254629       0.014
   0.12763888  0.12763888  0.04254629       0.003
   0.06381944  0.06381944  0.06381944       0.005
   0.08509259  0.06381944  0.06381944       0.014
   0.10636574  0.06381944  0.06381944       0.014
   0.12763888  0.06381944  0.06381944       0.007
   0.08509259  0.08509259  0.06381944       0.014
   0.10636574  0.08509259  0.06381944       0.028
   0.12763888  0.08509259  0.06381944       0.014
   0.10636574  0.10636574  0.06381944       0.014
   0.12763888  0.10636574  0.06381944       0.014
   0.12763888  0.12763888  0.06381944       0.003
   0.08509259  0.08509259  0.08509259       0.005
   0.10636574  0.08509259  0.08509259       0.014
   0.12763888  0.08509259  0.08509259       0.007
   0.10636574  0.10636574  0.08509259       0.014
   0.12763888  0.10636574  0.08509259       0.014
   0.12763888  0.12763888  0.08509259       0.003
   0.10636574  0.10636574  0.10636574       0.005
   0.12763888  0.10636574  0.10636574       0.007
   0.12763888  0.12763888  0.10636574       0.003
   0.12763888  0.12763888  0.12763888       0.001
 
 k-points in reciprocal lattice and weights: Automatic mesh                          
   0.00000000  0.00000000  0.00000000       0.001
   0.08333333  0.00000000  0.00000000       0.003
   0.16666667  0.00000000  0.00000000       0.003
   0.25000000  0.00000000  0.00000000       0.003
   0.33333333  0.00000000  0.00000000       0.003
   0.41666667  0.00000000  0.00000000       0.003
   0.50000000  0.00000000  0.00000000       0.002
   0.08333333  0.08333333  0.00000000       0.007
   0.16666667  0.08333333  0.00000000       0.014
   0.25000000  0.08333333  0.00000000       0.014
   0.33333333  0.08333333  0.00000000       0.014
   0.41666667  0.08333333  0.00000000       0.014
   0.50000000  0.08333333  0.00000000       0.007
   0.16666667  0.16666667  0.00000000       0.007
   0.25000000  0.16666667  0.00000000       0.014
   0.33333333  0.16666667  0.00000000       0.014
   0.41666667  0.16666667  0.00000000       0.014
   0.50000000  0.16666667  0.00000000       0.007
   0.25000000  0.25000000  0.00000000       0.007
   0.33333333  0.25000000  0.00000000       0.014
   0.41666667  0.25000000  0.00000000       0.014
   0.50000000  0.25000000  0.00000000       0.007
   0.33333333  0.33333333  0.00000000       0.007
   0.41666667  0.33333333  0.00000000       0.014
   0.50000000  0.33333333  0.00000000       0.007
   0.41666667  0.41666667  0.00000000       0.007
   0.50000000  0.41666667  0.00000000       0.007
   0.50000000  0.50000000  0.00000000       0.002
   0.08333333  0.08333333  0.08333333       0.005
   0.16666667  0.08333333  0.08333333       0.014
   0.25000000  0.08333333  0.08333333       0.014
   0.33333333  0.08333333  0.08333333       0.014
   0.41666667  0.08333333  0.08333333       0.014
   0.50000000  0.08333333  0.08333333       0.007
   0.16666667  0.16666667  0.08333333       0.014
   0.25000000  0.16666667  0.08333333       0.028
   0.33333333  0.16666667  0.08333333       0.028
   0.41666667  0.16666667  0.08333333       0.028
   0.50000000  0.16666667  0.08333333       0.014
   0.25000000  0.25000000  0.08333333       0.014
   0.33333333  0.25000000  0.08333333       0.028
   0.41666667  0.25000000  0.08333333       0.028
   0.50000000  0.25000000  0.08333333       0.014
   0.33333333  0.33333333  0.08333333       0.014
   0.41666667  0.33333333  0.08333333       0.028
   0.50000000  0.33333333  0.08333333       0.014
   0.41666667  0.41666667  0.08333333       0.014
   0.50000000  0.41666667  0.08333333       0.014
   0.50000000  0.50000000  0.08333333       0.003
   0.16666667  0.16666667  0.16666667       0.005
   0.25000000  0.16666667  0.16666667       0.014
   0.33333333  0.16666667  0.16666667       0.014
   0.41666667  0.16666667  0.16666667       0.014
   0.50000000  0.16666667  0.16666667       0.007
   0.25000000  0.25000000  0.16666667       0.014
   0.33333333  0.25000000  0.16666667       0.028
   0.41666667  0.25000000  0.16666667       0.028
   0.50000000  0.25000000  0.16666667       0.014
   0.33333333  0.33333333  0.16666667       0.014
   0.41666667  0.33333333  0.16666667       0.028
   0.50000000  0.33333333  0.16666667       0.014
   0.41666667  0.41666667  0.16666667       0.014
   0.50000000  0.41666667  0.16666667       0.014
   0.50000000  0.50000000  0.16666667       0.003
   0.25000000  0.25000000  0.25000000       0.005
   0.33333333  0.25000000  0.25000000       0.014
   0.41666667  0.25000000  0.25000000       0.014
   0.50000000  0.25000000  0.25000000       0.007
   0.33333333  0.33333333  0.25000000       0.014
   0.41666667  0.33333333  0.25000000       0.028
   0.50000000  0.33333333  0.25000000       0.014
   0.41666667  0.41666667  0.25000000       0.014
   0.50000000  0.41666667  0.25000000       0.014
   0.50000000  0.50000000  0.25000000       0.003
   0.33333333  0.33333333  0.33333333       0.005
   0.41666667  0.33333333  0.33333333       0.014
   0.50000000  0.33333333  0.33333333       0.007
   0.41666667  0.41666667  0.33333333       0.014
   0.50000000  0.41666667  0.33333333       0.014
   0.50000000  0.50000000  0.33333333       0.003
   0.41666667  0.41666667  0.41666667       0.005
   0.50000000  0.41666667  0.41666667       0.007
   0.50000000  0.50000000  0.41666667       0.003
   0.50000000  0.50000000  0.50000000       0.001
 
 position of ions in fractional coordinates (direct lattice) 
   0.00000000  0.00000000  0.00000000
   0.00000000  0.50000000  0.50000000
   0.50000000  0.00000000  0.50000000
   0.50000000  0.50000000  0.00000000
 
 position of ions in cartesian coordinates  (Angst):
   0.00000000  0.00000000  0.00000000
   0.00000000  1.95865079  1.95865079
   1.95865079  0.00000000  1.95865079
   1.95865079  1.95865079  0.00000000
 


--------------------------------------------------------------------------------------------------------


 k-point     1 :   0.0000 0.0000 0.0000  plane waves:    1791
 k-point     2 :   0.0833 0.0000 0.0000  plane waves:    1771
 k-point     3 :   0.1667 0.0000 0.0000  plane waves:    1779
 k-point     4 :   0.2500 0.0000 0.0000  plane waves:    1779
 k-point     5 :   0.3333 0.0000 0.0000  plane waves:    1783
 k-point     6 :   0.4167 0.0000 0.0000  plane waves:    1759
 k-point     7 :   0.5000 0.0000 0.0000  plane waves:    1750
 k-point     8 :   0.0833 0.0833 0.0000  plane waves:    1777
 k-point     9 :   0.1667 0.0833 0.0000  plane waves:    1779
 k-point    10 :   0.2500 0.0833 0.0000  plane waves:    1776
 k-point    11 :   0.3333 0.0833 0.0000  plane waves:    1761
 k-point    12 :   0.4167 0.0833 0.0000  plane waves:    1764
 k-point    13 :   0.5000 0.0833 0.0000  plane waves:    1766
 k-point    14 :   0.1667 0.1667 0.0000  plane waves:    1773
 k-point    15 :   0.2500 0.1667 0.0000  plane waves:    1773
 k-point    16 :   0.3333 0.1667 0.0000  plane waves:    1759
 k-point    17 :   0.4167 0.1667 0.0000  plane waves:    1770
 k-point    18 :   0.5000 0.1667 0.0000  plane waves:    1760
 k-point    19 :   0.2500 0.2500 0.0000  plane waves:    1759
 k-point    20 :   0.3333 0.2500 0.0000  plane waves:    1765
 k-point    21 :   0.4167 0.2500 0.0000  plane waves:    1765
 k-point    22 :   0.5000 0.2500 0.0000  plane waves:    1752
 k-point    23 :   0.3333 0.3333 0.0000  plane waves:    1746
 k-point    24 :   0.4167 0.3333 0.0000  plane waves:    1748
 k-point    25 :   0.5000 0.3333 0.0000  plane waves:    1746
 k-point    26 :   0.4167 0.4167 0.0000  plane waves:    1740
 k-point    27 :   0.5000 0.4167 0.0000  plane waves:    1742
 k-point    28 :   0.5000 0.5000 0.0000  plane waves:    1740
 k-point    29 :   0.0833 0.0833 0.0833  plane waves:    1785
 k-point    30 :   0.1667 0.0833 0.0833  plane waves:    1780
 k-point    31 :   0.2500 0.0833 0.0833  plane waves:    1770
 k-point    32 :   0.3333 0.0833 0.0833  plane waves:    1760
 k-point    33 :   0.4167 0.0833 0.0833  plane waves:    1757
 k-point    34 :   0.5000 0.0833 0.0833  plane waves:    1768
 k-point    35 :   0.1667 0.1667 0.0833  plane waves:    1776
 k-point    36 :   0.2500 0.1667 0.0833  plane waves:    1767
 k-point    37 :   0.3333 0.1667 0.0833  plane waves:    1761
 k-point    38 :   0.4167 0.1667 0.0833  plane waves:    1765
 k-point    39 :   0.5000 0.1667 0.0833  plane waves:    1760
 k-point    40 :   0.2500 0.2500 0.0833  plane waves:    1763
 k-point    41 :   0.3333 0.2500 0.0833  plane waves:    1767
 k-point    42 :   0.4167 0.2500 0.0833  plane waves:    1767
 k-point    43 :   0.5000 0.2500 0.0833  plane waves:    1752
 k-point    44 :   0.3333 0.3333 0.0833  plane waves:    1768
 k-point    45 :   0.4167 0.3333 0.0833  plane waves:    1749
 k-point    46 :   0.5000 0.3333 0.0833  plane waves:    1748
 k-point    47 :   0.4167 0.4167 0.0833  plane waves:    1740
 k-point    48 :   0.5000 0.4167 0.0833  plane waves:    1744
 k-point    49 :   0.5000 0.5000 0.0833  plane waves:    1736
 k-point    50 :   0.1667 0.1667 0.1667  plane waves:    1791
 k-point    51 :   0.2500 0.1667 0.1667  plane waves:    1760
 k-point    52 :   0.3333 0.1667 0.1667  plane waves:    1762
 k-point    53 :   0.4167 0.1667 0.1667  plane waves:    1765
 k-point    54 :   0.5000 0.1667 0.1667  plane waves:    1752
 k-point    55 :   0.2500 0.2500 0.1667  plane waves:    1760
 k-point    56 :   0.3333 0.2500 0.1667  plane waves:    1766
 k-point    57 :   0.4167 0.2500 0.1667  plane waves:    1756
 k-point    58 :   0.5000 0.2500 0.1667  plane waves:    1750
 k-point    59 :   0.3333 0.3333 0.1667  plane waves:    1759
 k-point    60 :   0.4167 0.3333 0.1667  plane waves:    1752
 k-point    61 :   0.5000 0.3333 0.1667  plane waves:    1754
 k-point    62 :   0.4167 0.4167 0.1667  plane waves:    1756
 k-point    63 :   0.5000 0.4167 0.1667  plane waves:    1744
 k-point    64 :   0.5000 0.5000 0.1667  plane waves:    1752
 k-point    65 :   0.2500 0.2500 0.2500  plane waves:    1749
 k-point    66 :   0.3333 0.2500 0.2500  plane waves:    1768
 k-point    67 :   0.4167 0.2500 0.2500  plane waves:    1758
 k-point    68 :   0.5000 0.2500 0.2500  plane waves:    1756
 k-point    69 :   0.3333 0.3333 0.2500  plane waves:    1755
 k-point    70 :   0.4167 0.3333 0.2500  plane waves:    1755
 k-point    71 :   0.5000 0.3333 0.2500  plane waves:    1750
 k-point    72 :   0.4167 0.4167 0.2500  plane waves:    1758
 k-point    73 :   0.5000 0.4167 0.2500  plane waves:    1756
 k-point    74 :   0.5000 0.5000 0.2500  plane waves:    1764
 k-point    75 :   0.3333 0.3333 0.3333  plane waves:    1757
 k-point    76 :   0.4167 0.3333 0.3333  plane waves:    1758
 k-point    77 :   0.5000 0.3333 0.3333  plane waves:    1748
 k-point    78 :   0.4167 0.4167 0.3333  plane waves:    1755
 k-point    79 :   0.5000 0.4167 0.3333  plane waves:    1760
 k-point    80 :   0.5000 0.5000 0.3333  plane waves:    1764
 k-point    81 :   0.4167 0.4167 0.4167  plane waves:    1760
 k-point    82 :   0.5000 0.4167 0.4167  plane waves:    1760
 k-point    83 :   0.5000 0.5000 0.4167  plane waves:    1764
 k-point    84 :   0.5000 0.5000 0.5000  plane waves:    1736

 maximum and minimum number of plane-waves per node :      1791     1736

 maximum number of plane-waves:      1791
 maximum index in each direction: 
   IXMAX=    7   IYMAX=    7   IZMAX=    7
   IXMIN=   -7   IYMIN=   -7   IZMIN=   -7


 serial   3D FFT for wavefunctions
 parallel 3D FFT for charge:
    minimum data exchange during FFTs selected (reduces bandwidth)


 total amount of memory used by VASP MPI-rank0   116313. kBytes
=======================================================================

   base      :      30000. kBytes
   nonl-proj :      21790. kBytes
   fftplans  :       8118. kBytes
   grid      :       6177. kBytes
   one-center:        124. kBytes
   wavefun   :      50104. kBytes
 
     INWAV:  cpu time      0.0001: real time      0.0001
 Broyden mixing: mesh for mixing (old mesh)
   NGX = 15   NGY = 15   NGZ = 15
  (NGX  = 60   NGY  = 60   NGZ  = 60)
  gives a total of   3375 points

 initial charge density was supplied:
 charge density of overlapping atoms calculated
 number of electron      64.0000000 magnetization       4.0000000
 keeping initial charge density in first step


--------------------------------------------------------------------------------------------------------


 Maximum index for augmentation-charges         34825 (set IRDMAX)


--------------------------------------------------------------------------------------------------------


 First call to EWALD:  gamma=   0.452
 Maximum number of real-space cells 3x 3x 3
 Maximum number of reciprocal cells 3x 3x 3

    FEWALD:  cpu time      0.0319: real time      0.0319


--------------------------------------- Ionic step        1  -------------------------------------------




--------------------------------------- Iteration      1(   1)  ---------------------------------------


    POTLOK:  cpu time      0.2904: real time      0.2904
    SETDIJ:  cpu time      0.6430: real time      0.6431
     EDDAV:  cpu time     55.8313: real time     55.8801
       DOS:  cpu time      0.0012: real time      0.0012
    --------------------------------------------
      LOOP:  cpu time     56.7659: real time     56.8148

 eigenvalue-minimisations  : 13864
 total energy-change (2. order) : 0.7921225E+03  (-0.4126509E+04)
 number of electron      64.0000000 magnetization       4.0000000
 augmentation part       64.0000000 magnetization       4.0000000

 Free energy of the ion-electron system (eV)
  ---------------------------------------------------
  alpha Z        PSCENC =       542.73305656
  Ewald energy   TEWEN  =     -8629.09612564
  -Hartree energ DENC   =     -2225.92554515
  -exchange      EXHF   =         0.00000000
  -V(xc)+E(xc)   XCENC  =       331.53594691
  PAW double counting   =      9031.68406025    -8916.38598993
  entropy T*S    EENTRO =        -0.00042219
  eigenvalues    EBANDS =       171.38704626
  atomic energy  EATOM  =     10486.19045757
  Solvation  Ediel_sol  =         0.00000000
  ---------------------------------------------------
  free energy    TOTEN  =       792.12248464 eV

  energy without entropy =      792.12290683  energy(sigma->0) =      792.12262537


--------------------------------------------------------------------------------------------------------




--------------------------------------- Iteration      1(   2)  ---------------------------------------


     EDDAV:  cpu time      7.7855: real time      7.7861
       DOS:  cpu time      0.0012: real time      0.0012
    --------------------------------------------
      LOOP:  cpu time      7.7867: real time      7.7873

 eigenvalue-minimisations  : 14048
 total energy-change (2. order) :-0.7843408E+03  (-0.7570853E+03)
 number of electron      64.0000000 magnetization       4.0000000
 augmentation part       64.0000000 magnetization       4.0000000

 Free energy of the ion-electron system (eV)
  ---------------------------------------------------
  alpha Z        PSCENC =       542.73305656
  Ewald energy   TEWEN  =     -8629.09612564
  -Hartree energ DENC   =     -2225.92554515
  -exchange      EXHF   =         0.00000000
  -V(xc)+E(xc)   XCENC  =       331.53594691
  PAW double counting   =      9031.68406025    -8916.38598993
  entropy T*S    EENTRO =         0.00030312
  eigenvalues    EBANDS =      -612.95442979
  atomic energy  EATOM  =     10486.19045757
  Solvation  Ediel_sol  =         0.00000000
  ---------------------------------------------------
  free energy    TOTEN  =         7.78173390 eV

  energy without entropy =        7.78143078  energy(sigma->0) =        7.78163286


--------------------------------------------------------------------------------------------------------




--------------------------------------- Iteration      1(   3)  ---------------------------------------


     EDDAV:  cpu time      6.3871: real time      6.3883
       DOS:  cpu time      0.0013: real time      0.0013
    --------------------------------------------
      LOOP:  cpu time      6.3884: real time      6.3895

 eigenvalue-minimisations  : 15032
 total energy-change (2. order) :-0.2915713E+02  (-0.2848420E+02)
 number of electron      64.0000000 magnetization       4.0000000
 augmentation part       64.0000000 magnetization       4.0000000

 Free energy of the ion-electron system (eV)
  ---------------------------------------------------
  alpha Z        PSCENC =       542.73305656
  Ewald energy   TEWEN  =     -8629.09612564
  -Hartree energ DENC   =     -2225.92554515
  -exchange      EXHF   =         0.00000000
  -V(xc)+E(xc)   XCENC  =       331.53594691
  PAW double counting   =      9031.68406025    -8916.38598993
  entropy T*S    EENTRO =         0.00154593
  eigenvalues    EBANDS =      -642.11279763
  atomic energy  EATOM  =     10486.19045757
  Solvation  Ediel_sol  =         0.00000000
  ---------------------------------------------------
  free energy    TOTEN  =       -21.37539113 eV

  energy without entropy =      -21.37693706  energy(sigma->0) =      -21.37590644


--------------------------------------------------------------------------------------------------------




--------------------------------------- Iteration      1(   4)  ---------------------------------------


     EDDAV:  cpu time      6.1272: real time      6.1277
       DOS:  cpu time      0.0013: real time      0.0013
    --------------------------------------------
      LOOP:  cpu time      6.1285: real time      6.1290

 eigenvalue-minimisations  : 14448
 total energy-change (2. order) :-0.3187565E+00  (-0.3186872E+00)
 number of electron      64.0000000 magnetization       4.0000000
 augmentation part       64.0000000 magnetization       4.0000000

 Free energy of the ion-electron system (eV)
  ---------------------------------------------------
  alpha Z        PSCENC =       542.73305656
  Ewald energy   TEWEN  =     -8629.09612564
  -Hartree energ DENC   =     -2225.92554515
  -exchange      EXHF   =         0.00000000
  -V(xc)+E(xc)   XCENC  =       331.53594691
  PAW double counting   =      9031.68406025    -8916.38598993
  entropy T*S    EENTRO =         0.00147260
  eigenvalues    EBANDS =      -642.43148085
  atomic energy  EATOM  =     10486.19045757
  Solvation  Ediel_sol  =         0.00000000
  ---------------------------------------------------
  free energy    TOTEN  =       -21.69414768 eV

  energy without entropy =      -21.69562028  energy(sigma->0) =      -21.69463855


--------------------------------------------------------------------------------------------------------




--------------------------------------- Iteration      1(   5)  ---------------------------------------


     EDDAV:  cpu time      6.2898: real time      6.2904
       DOS:  cpu time      0.0012: real time      0.0012
    CHARGE:  cpu time      0.5618: real time      0.5618
    MIXING:  cpu time      0.0012: real time      0.0012
    --------------------------------------------
      LOOP:  cpu time      6.8541: real time      6.8547

 eigenvalue-minimisations  : 14880
 total energy-change (2. order) :-0.5112710E-02  (-0.5112658E-02)
 number of electron      64.0000003 magnetization       1.8392608
 augmentation part       29.8747362 magnetization       1.0182379

 Broyden mixing:
  rms(total) = 0.10824E+01    rms(broyden)= 0.10824E+01
  rms(prec ) = 0.18662E+01
  weight for this iteration     100.00

 Free energy of the ion-electron system (eV)
  ---------------------------------------------------
  alpha Z        PSCENC =       542.73305656
  Ewald energy   TEWEN  =     -8629.09612564
  -Hartree energ DENC   =     -2225.92554515
  -exchange      EXHF   =         0.00000000
  -V(xc)+E(xc)   XCENC  =       331.53594691
  PAW double counting   =      9031.68406025    -8916.38598993
  entropy T*S    EENTRO =         0.00147219
  eigenvalues    EBANDS =      -642.43659315
  atomic energy  EATOM  =     10486.19045757
  Solvation  Ediel_sol  =         0.00000000
  ---------------------------------------------------
  free energy    TOTEN  =       -21.69926039 eV

  energy without entropy =      -21.70073258  energy(sigma->0) =      -21.69975112


--------------------------------------------------------------------------------------------------------




--------------------------------------- Iteration      1(   6)  ---------------------------------------


    POTLOK:  cpu time      0.0428: real time      0.0428
    SETDIJ:  cpu time      0.4153: real time      0.4154
     EDDAV:  cpu time      6.1732: real time      6.1749
       DOS:  cpu time      0.0012: real time      0.0012
    CHARGE:  cpu time      0.5472: real time      0.5473
    MIXING:  cpu time      0.0013: real time      0.0013
    --------------------------------------------
      LOOP:  cpu time      7.1810: real time      7.1828

 eigenvalue-minimisations  : 14424
 total energy-change (2. order) : 0.8695552E+00  (-0.3756381E+00)
 number of electron      64.0000003 magnetization       1.5096624
 augmentation part       30.6979524 magnetization       0.9146757

 Broyden mixing:
  rms(total) = 0.22881E+00    rms(broyden)= 0.22879E+00
  rms(prec ) = 0.27520E+00
  weight for this iteration     100.00

 eigenvalues of (default mixing * dielectric matrix)
  average eigenvalue GAMMA=   1.0114
  1.0114

 Free energy of the ion-electron system (eV)
  ---------------------------------------------------
  alpha Z        PSCENC =       542.73305656
  Ewald energy   TEWEN  =     -8629.09612564
  -Hartree energ DENC   =     -2157.19536633
  -exchange      EXHF   =         0.00000000
  -V(xc)+E(xc)   XCENC  =       328.31651111
  PAW double counting   =      9251.22345895    -9143.70243986
  entropy T*S    EENTRO =         0.00076710
  eigenvalues    EBANDS =      -699.30002466
  atomic energy  EATOM  =     10486.19045757
  Solvation  Ediel_sol  =         0.00000000
  ---------------------------------------------------
  free energy    TOTEN  =       -20.82970519 eV

  energy without entropy =      -20.83047229  energy(sigma->0) =      -20.82996089


--------------------------------------------------------------------------------------------------------




--------------------------------------- Iteration      1(   7)  ---------------------------------------


    POTLOK:  cpu time      0.0406: real time      0.0406
    SETDIJ:  cpu time      0.4139: real time      0.4140
     EDDAV:  cpu time      6.1085: real time      6.1117
       DOS:  cpu time      0.0012: real time      0.0012
    CHARGE:  cpu time      0.5571: real time      0.5571
    MIXING:  cpu time      0.0015: real time      0.0015
    --------------------------------------------
      LOOP:  cpu time      7.1229: real time      7.1261

 eigenvalue-minimisations  : 14432
 total energy-change (2. order) : 0.9811422E-03  (-0.3901723E-02)
 number of electron      64.0000003 magnetization       1.2844317
 augmentation part       30.6831397 magnetization       0.8063817

 Broyden mixing:
  rms(total) = 0.15217E+00    rms(broyden)= 0.15217E+00
  rms(prec ) = 0.17888E+00
  weight for this iteration     100.00

 eigenvalues of (default mixing * dielectric matrix)
  average eigenvalue GAMMA=   0.9699
  1.2922  0.6476

 Free energy of the ion-electron system (eV)
  ---------------------------------------------------
  alpha Z        PSCENC =       542.73305656
  Ewald energy   TEWEN  =     -8629.09612564
  -Hartree energ DENC   =     -2156.44069716
  -exchange      EXHF   =         0.00000000
  -V(xc)+E(xc)   XCENC  =       328.26589173
  PAW double counting   =      9381.69432971    -9275.48676135
  entropy T*S    EENTRO =        -0.00028691
  eigenvalues    EBANDS =      -698.68858857
  atomic energy  EATOM  =     10486.19045757
  Solvation  Ediel_sol  =         0.00000000
  ---------------------------------------------------
  free energy    TOTEN  =       -20.82872405 eV

  energy without entropy =      -20.82843714  energy(sigma->0) =      -20.82862842


--------------------------------------------------------------------------------------------------------




--------------------------------------- Iteration      1(   8)  ---------------------------------------


    POTLOK:  cpu time      0.0412: real time      0.0412
    SETDIJ:  cpu time      0.4126: real time      0.4126
     EDDAV:  cpu time      6.1860: real time      6.1895
       DOS:  cpu time      0.0013: real time      0.0013
    CHARGE:  cpu time      0.5464: real time      0.5465
    MIXING:  cpu time      0.0012: real time      0.0012
    --------------------------------------------
      LOOP:  cpu time      7.1886: real time      7.1923

 eigenvalue-minimisations  : 14688
 total energy-change (2. order) : 0.1577592E-02  (-0.4536861E-03)
 number of electron      64.0000003 magnetization       1.0893534
 augmentation part       30.6839262 magnetization       0.6459486

 Broyden mixing:
  rms(total) = 0.83679E-01    rms(broyden)= 0.83679E-01
  rms(prec ) = 0.97486E-01
  weight for this iteration     100.00

 eigenvalues of (default mixing * dielectric matrix)
  average eigenvalue GAMMA=   1.2693
  2.2701  0.9243  0.6134

 Free energy of the ion-electron system (eV)
  ---------------------------------------------------
  alpha Z        PSCENC =       542.73305656
  Ewald energy   TEWEN  =     -8629.09612564
  -Hartree energ DENC   =     -2155.08503861
  -exchange      EXHF   =         0.00000000
  -V(xc)+E(xc)   XCENC  =       328.18881199
  PAW double counting   =      9474.19171376    -9368.77288813
  entropy T*S    EENTRO =        -0.00052533
  eigenvalues    EBANDS =      -699.17660864
  atomic energy  EATOM  =     10486.19045757
  Solvation  Ediel_sol  =         0.00000000
  ---------------------------------------------------
  free energy    TOTEN  =       -20.82714646 eV

  energy without entropy =      -20.82662113  energy(sigma->0) =      -20.82697135


--------------------------------------------------------------------------------------------------------




--------------------------------------- Iteration      1(   9)  ---------------------------------------


    POTLOK:  cpu time      0.0409: real time      0.0409
    SETDIJ:  cpu time      0.4172: real time      0.4172
     EDDAV:  cpu time      6.0550: real time      6.0565
       DOS:  cpu time      0.0013: real time      0.0013
    CHARGE:  cpu time      0.5470: real time      0.5477
    MIXING:  cpu time      0.0012: real time      0.0012
    --------------------------------------------
      LOOP:  cpu time      7.0626: real time      7.0649

 eigenvalue-minimisations  : 14280
 total energy-change (2. order) :-0.5017044E-03  (-0.2590216E-03)
 number of electron      64.0000003 magnetization       1.0683047
 augmentation part       30.6866927 magnetization       0.6842393

 Broyden mixing:
  rms(total) = 0.86382E-02    rms(broyden)= 0.86294E-02
  rms(prec ) = 0.99361E-02
  weight for this iteration     100.00

 eigenvalues of (default mixing * dielectric matrix)
  average eigenvalue GAMMA=   1.2523
  2.5833  0.9518  0.8588  0.6152

 Free energy of the ion-electron system (eV)
  ---------------------------------------------------
  alpha Z        PSCENC =       542.73305656
  Ewald energy   TEWEN  =     -8629.09612564
  -Hartree energ DENC   =     -2153.58331765
  -exchange      EXHF   =         0.00000000
  -V(xc)+E(xc)   XCENC  =       328.11116766
  PAW double counting   =      9577.93402503    -9473.25132044
  entropy T*S    EENTRO =        -0.00049380
  eigenvalues    EBANDS =      -699.86509746
  atomic energy  EATOM  =     10486.19045757
  Solvation  Ediel_sol  =         0.00000000
  ---------------------------------------------------
  free energy    TOTEN  =       -20.82764816 eV

  energy without entropy =      -20.82715436  energy(sigma->0) =      -20.82748356


--------------------------------------------------------------------------------------------------------




--------------------------------------- Iteration      1(  10)  ---------------------------------------


    POTLOK:  cpu time      0.0407: real time      0.0407
    SETDIJ:  cpu time      0.4130: real time      0.4131
     EDDAV:  cpu time      6.5625: real time      6.6271
       DOS:  cpu time      0.0012: real time      0.0012
    CHARGE:  cpu time      0.5483: real time      0.5484
    MIXING:  cpu time      0.0014: real time      0.0014
    --------------------------------------------
      LOOP:  cpu time      7.5672: real time      7.6319

 eigenvalue-minimisations  : 15104
 total energy-change (2. order) :-0.2487146E-03  (-0.2956833E-04)
 number of electron      64.0000003 magnetization       1.0481643
 augmentation part       30.6880643 magnetization       0.6741833

 Broyden mixing:
  rms(total) = 0.84170E-02    rms(broyden)= 0.84153E-02
  rms(prec ) = 0.93815E-02
  weight for this iteration     100.00

 eigenvalues of (default mixing * dielectric matrix)
  average eigenvalue GAMMA=   1.0953
  2.5959  0.9425  0.9425  0.6073  0.3884

 Free energy of the ion-electron system (eV)
  ---------------------------------------------------
  alpha Z        PSCENC =       542.73305656
  Ewald energy   TEWEN  =     -8629.09612564
  -Hartree energ DENC   =     -2153.62609047
  -exchange      EXHF   =         0.00000000
  -V(xc)+E(xc)   XCENC  =       328.11166835
  PAW double counting   =      9582.53783357    -9477.73499816
  entropy T*S    EENTRO =        -0.00045176
  eigenvalues    EBANDS =      -699.94324690
  atomic energy  EATOM  =     10486.19045757
  Solvation  Ediel_sol  =         0.00000000
  ---------------------------------------------------
  free energy    TOTEN  =       -20.82789688 eV

  energy without entropy =      -20.82744512  energy(sigma->0) =      -20.82774629


--------------------------------------------------------------------------------------------------------




--------------------------------------- Iteration      1(  11)  ---------------------------------------


    POTLOK:  cpu time      0.0407: real time      0.0407
    SETDIJ:  cpu time      0.4142: real time      0.4142
     EDDAV:  cpu time      6.1752: real time      6.1771
       DOS:  cpu time      0.0013: real time      0.0013
    CHARGE:  cpu time      0.5418: real time      0.5427
    MIXING:  cpu time      0.0013: real time      0.0013
    --------------------------------------------
      LOOP:  cpu time      7.1745: real time      7.1773

 eigenvalue-minimisations  : 14656
 total energy-change (2. order) :-0.5049707E-04  (-0.2708034E-05)
 number of electron      64.0000003 magnetization       0.9696260
 augmentation part       30.6881335 magnetization       0.6013493

 Broyden mixing:
  rms(total) = 0.67940E-02    rms(broyden)= 0.67936E-02
  rms(prec ) = 0.74796E-02
  weight for this iteration     100.00

 eigenvalues of (default mixing * dielectric matrix)
  average eigenvalue GAMMA=   1.5449
  3.2648  2.5159  1.1729  0.9693  0.6199  0.7266

 Free energy of the ion-electron system (eV)
  ---------------------------------------------------
  alpha Z        PSCENC =       542.73305656
  Ewald energy   TEWEN  =     -8629.09612564
  -Hartree energ DENC   =     -2153.72010221
  -exchange      EXHF   =         0.00000000
  -V(xc)+E(xc)   XCENC  =       328.11466814
  PAW double counting   =      9583.66961351    -9478.77645176
  entropy T*S    EENTRO =        -0.00039605
  eigenvalues    EBANDS =      -699.94266751
  atomic energy  EATOM  =     10486.19045757
  Solvation  Ediel_sol  =         0.00000000
  ---------------------------------------------------
  free energy    TOTEN  =       -20.82794738 eV

  energy without entropy =      -20.82755133  energy(sigma->0) =      -20.82781536


--------------------------------------------------------------------------------------------------------




--------------------------------------- Iteration      1(  12)  ---------------------------------------


    POTLOK:  cpu time      0.0404: real time      0.0405
    SETDIJ:  cpu time      0.4127: real time      0.4129
     EDDAV:  cpu time      6.0576: real time      6.0621
       DOS:  cpu time      0.0012: real time      0.0012
    CHARGE:  cpu time      0.5430: real time      0.5432
    MIXING:  cpu time      0.0014: real time      0.0014
    --------------------------------------------
      LOOP:  cpu time      7.0564: real time      7.0613

 eigenvalue-minimisations  : 14152
 total energy-change (2. order) :-0.6636067E-04  (-0.1525267E-04)
 number of electron      64.0000003 magnetization       0.9653902
 augmentation part       30.6878468 magnetization       0.6176458

 Broyden mixing:
  rms(total) = 0.86806E-03    rms(broyden)= 0.85801E-03
  rms(prec ) = 0.10665E-02
  weight for this iteration     100.00

 eigenvalues of (default mixing * dielectric matrix)
  average eigenvalue GAMMA=   1.4622
  3.5093  2.5213  1.1794  0.9636  0.7486  0.6235  0.6894

 Free energy of the ion-electron system (eV)
  ---------------------------------------------------
  alpha Z        PSCENC =       542.73305656
  Ewald energy   TEWEN  =     -8629.09612564
  -Hartree energ DENC   =     -2154.00841142
  -exchange      EXHF   =         0.00000000
  -V(xc)+E(xc)   XCENC  =       328.12367094
  PAW double counting   =      9585.90336506    -9480.76940412
  entropy T*S    EENTRO =        -0.00016028
  eigenvalues    EBANDS =      -699.90446242
  atomic energy  EATOM  =     10486.19045757
  Solvation  Ediel_sol  =         0.00000000
  ---------------------------------------------------
  free energy    TOTEN  =       -20.82801374 eV

  energy without entropy =      -20.82785346  energy(sigma->0) =      -20.82796031


--------------------------------------------------------------------------------------------------------




--------------------------------------- Iteration      1(  13)  ---------------------------------------


    POTLOK:  cpu time      0.0410: real time      0.0411
    SETDIJ:  cpu time      0.4253: real time      0.4253
     EDDAV:  cpu time      5.7694: real time      5.9266
       DOS:  cpu time      0.0012: real time      0.0012
    CHARGE:  cpu time      0.5562: real time      0.5564
    MIXING:  cpu time      0.0014: real time      0.0014
    --------------------------------------------
      LOOP:  cpu time      6.7945: real time      6.9521

 eigenvalue-minimisations  : 12528
 total energy-change (2. order) :-0.5979581E-05  (-0.4245685E-06)
 number of electron      64.0000003 magnetization       0.9618064
 augmentation part       30.6878800 magnetization       0.6152085

 Broyden mixing:
  rms(total) = 0.58383E-03    rms(broyden)= 0.58258E-03
  rms(prec ) = 0.73614E-03
  weight for this iteration     100.00

 eigenvalues of (default mixing * dielectric matrix)
  average eigenvalue GAMMA=   1.3788
  3.6803  2.5249  1.1761  0.9418  0.7620  0.6178  0.6639  0.6639

 Free energy of the ion-electron system (eV)
  ---------------------------------------------------
  alpha Z        PSCENC =       542.73305656
  Ewald energy   TEWEN  =     -8629.09612564
  -Hartree energ DENC   =     -2153.99590211
  -exchange      EXHF   =         0.00000000
  -V(xc)+E(xc)   XCENC  =       328.12293868
  PAW double counting   =      9585.65278961    -9480.52769795
  entropy T*S    EENTRO =        -0.00015085
  eigenvalues    EBANDS =      -699.90738560
  atomic energy  EATOM  =     10486.19045757
  Solvation  Ediel_sol  =         0.00000000
  ---------------------------------------------------
  free energy    TOTEN  =       -20.82801972 eV

  energy without entropy =      -20.82786887  energy(sigma->0) =      -20.82796943


--------------------------------------------------------------------------------------------------------




--------------------------------------- Iteration      1(  14)  ---------------------------------------


    POTLOK:  cpu time      0.0406: real time      0.0407
    SETDIJ:  cpu time      0.4154: real time      0.4154
     EDDAV:  cpu time      4.1094: real time      4.1102
       DOS:  cpu time      0.0012: real time      0.0012
    CHARGE:  cpu time      0.5402: real time      0.5404
    MIXING:  cpu time      0.0015: real time      0.0015
    --------------------------------------------
      LOOP:  cpu time      5.1084: real time      5.1094

 eigenvalue-minimisations  :  7424
 total energy-change (2. order) :-0.1278194E-05  (-0.6124721E-07)
 number of electron      64.0000003 magnetization       0.9594973
 augmentation part       30.6879160 magnetization       0.6139346

 Broyden mixing:
  rms(total) = 0.26468E-03    rms(broyden)= 0.26428E-03
  rms(prec ) = 0.37561E-03
  weight for this iteration     100.00

 eigenvalues of (default mixing * dielectric matrix)
  average eigenvalue GAMMA=   1.5000
  3.9036  2.5518  2.1798  1.1109  0.9921  0.7398  0.7398  0.6227  0.6591

 Free energy of the ion-electron system (eV)
  ---------------------------------------------------
  alpha Z        PSCENC =       542.73305656
  Ewald energy   TEWEN  =     -8629.09612564
  -Hartree energ DENC   =     -2153.98032206
  -exchange      EXHF   =         0.00000000
  -V(xc)+E(xc)   XCENC  =       328.12207175
  PAW double counting   =      9585.35423349    -9480.24165028
  entropy T*S    EENTRO =        -0.00013911
  eigenvalues    EBANDS =      -699.90960328
  atomic energy  EATOM  =     10486.19045757
  Solvation  Ediel_sol  =         0.00000000
  ---------------------------------------------------
  free energy    TOTEN  =       -20.82802099 eV

  energy without entropy =      -20.82788188  energy(sigma->0) =      -20.82797462


--------------------------------------------------------------------------------------------------------




--------------------------------------- Iteration      1(  15)  ---------------------------------------


    POTLOK:  cpu time      0.0405: real time      0.0406
    SETDIJ:  cpu time      0.4157: real time      0.4157
     EDDAV:  cpu time      4.0846: real time      4.0851
       DOS:  cpu time      0.0013: real time      0.0013
    CHARGE:  cpu time      0.5460: real time      0.5460
    MIXING:  cpu time      0.0014: real time      0.0014
    --------------------------------------------
      LOOP:  cpu time      5.0894: real time      5.0902

 eigenvalue-minimisations  :  7336
 total energy-change (2. order) :-0.1506572E-05  (-0.2929093E-07)
 number of electron      64.0000003 magnetization       0.9585249
 augmentation part       30.6879447 magnetization       0.6135595

 Broyden mixing:
  rms(total) = 0.12334E-03    rms(broyden)= 0.12316E-03
  rms(prec ) = 0.12546E-03
  weight for this iteration     100.00

 eigenvalues of (default mixing * dielectric matrix)
  average eigenvalue GAMMA=   1.4700
  3.8392  2.6101  2.4705  1.0675  0.9844  0.9844  0.8095  0.6827  0.6325  0.6198

 Free energy of the ion-electron system (eV)
  ---------------------------------------------------
  alpha Z        PSCENC =       542.73305656
  Ewald energy   TEWEN  =     -8629.09612564
  -Hartree energ DENC   =     -2153.95504286
  -exchange      EXHF   =         0.00000000
  -V(xc)+E(xc)   XCENC  =       328.12084559
  PAW double counting   =      9584.93027622    -9479.83995918
  entropy T*S    EENTRO =        -0.00013141
  eigenvalues    EBANDS =      -699.91139935
  atomic energy  EATOM  =     10486.19045757
  Solvation  Ediel_sol  =         0.00000000
  ---------------------------------------------------
  free energy    TOTEN  =       -20.82802250 eV

  energy without entropy =      -20.82789109  energy(sigma->0) =      -20.82797870


--------------------------------------------------------------------------------------------------------




--------------------------------------- Iteration      1(  16)  ---------------------------------------


    POTLOK:  cpu time      0.0411: real time      0.0412
    SETDIJ:  cpu time      0.4168: real time      0.4168
     EDDAV:  cpu time      4.0662: real time      4.0672
       DOS:  cpu time      0.0012: real time      0.0012
    --------------------------------------------
      LOOP:  cpu time      4.5253: real time      4.5264

 eigenvalue-minimisations  :  7240
 total energy-change (2. order) :-0.1586382E-06  (-0.4935681E-08)
 number of electron      64.0000003 magnetization       0.9585249
 augmentation part       30.6879447 magnetization       0.6135595

 Free energy of the ion-electron system (eV)
  ---------------------------------------------------
  alpha Z        PSCENC =       542.73305656
  Ewald energy   TEWEN  =     -8629.09612564
  -Hartree energ DENC   =     -2153.95368758
  -exchange      EXHF   =         0.00000000
  -V(xc)+E(xc)   XCENC  =       328.12073807
  PAW double counting   =      9584.90029192    -9479.81184936
  entropy T*S    EENTRO =        -0.00012851
  eigenvalues    EBANDS =      -699.91077569
  atomic energy  EATOM  =     10486.19045757
  Solvation  Ediel_sol  =         0.00000000
  ---------------------------------------------------
  free energy    TOTEN  =       -20.82802266 eV

  energy without entropy =      -20.82789415  energy(sigma->0) =      -20.82797982


--------------------------------------------------------------------------------------------------------




 average (electrostatic) potential at core
  the test charge radii are     1.0504
  (the norm of the test charge is              1.0000)
       1 -74.6010       2 -74.6010       3 -74.6010       4 -74.6010
 
 
 
 E-fermi :   9.3365     XC(G=0): -13.2453     alpha+bet :-16.2254

 val. band max:        9.3358873518   @ k =   0.4167   0.0833   0.0833
 cond. band min:       9.3371596318   @ k =   0.5000   0.5000   0.4167
 fundamental gap:      0.0012722801
 Fermi energy:         9.3364895646

 spin component 1

 k-point     1 :       0.0000    0.0000    0.0000
  band No.  band energies     occupation 
      1     -40.7603      1.00000
      2     -40.7603      1.00000
      3     -40.7603      1.00000
      4     -40.5421      1.00000
      5     -40.5421      1.00000
      6     -40.5421      1.00000
      7     -40.5421      1.00000
      8     -40.5421      1.00000
      9     -40.5421      1.00000
     10     -40.3986      1.00000
     11     -40.3986      1.00000
     12     -40.3986      1.00000
     13       2.2991      1.00000
     14       4.0277      1.00000
     15       4.0277      1.00000
     16       4.0277      1.00000
     17       4.2746      1.00000
     18       4.2746      1.00000
     19       4.2746      1.00000
     20       6.4620      1.00000
     21       6.4620      1.00000
     22       6.4620      1.00000
     23       8.0472      1.00000
     24       8.0472      1.00000
     25       9.1825      1.02584
     26       9.1825      1.02584
     27       9.1825      1.02584
     28       9.4814     -0.02987
     29       9.4814     -0.02987
     30       9.4814     -0.02987
     31       9.4814     -0.02987
     32       9.4814     -0.02987
     33       9.4814     -0.02987
     34      12.6560      0.00000
     35      12.6560      0.00000
     36      12.6560      0.00000
     37      19.8444      0.00000
     38      19.8444      0.00000
     39      19.8444      0.00000
     40      22.4154      0.00000

 k-point     2 :       0.0833    0.0000    0.0000
  band No.  band energies     occupation 
      1     -40.7566      1.00000
      2     -40.7566      1.00000
      3     -40.7545      1.00000
      4     -40.5458      1.00000
      5     -40.5458      1.00000
      6     -40.5422      1.00000
      7     -40.5422      1.00000
      8     -40.5396      1.00000
      9     -40.5396      1.00000
     10     -40.4050      1.00000
     11     -40.4010      1.00000
     12     -40.4010      1.00000
     13       2.3827      1.00000
     14       4.0669      1.00000
     15       4.0809      1.00000
     16       4.0809      1.00000
     17       4.3060      1.00000
     18       4.3222      1.00000
     19       4.3222      1.00000
     20       6.4171      1.00000
     21       6.4992      1.00000
     22       6.4992      1.00000
     23       8.0007      1.00000
     24       8.0651      1.00000
     25       9.1186      1.00429
     26       9.1186      1.00429
     27       9.1615      1.01641
     28       9.2053      1.03441
     29       9.2053      1.03441
     30       9.4051      0.04522
     31       9.4051      0.04522
     32       9.4815     -0.02981
     33       9.4815     -0.02981
     34      12.2416      0.00000
     35      12.9899      0.00000
     36      12.9899      0.00000
     37      19.8270      0.00000
     38      19.8270      0.00000
     39      20.3602      0.00000
     40      22.2461      0.00000

 k-point     3 :       0.1667    0.0000    0.0000
  band No.  band energies     occupation 
      1     -40.7459      1.00000
      2     -40.7459      1.00000
      3     -40.7372      1.00000
      4     -40.5568      1.00000
      5     -40.5568      1.00000
      6     -40.5427      1.00000
      7     -40.5427      1.00000
      8     -40.5325      1.00000
      9     -40.5325      1.00000
     10     -40.4239      1.00000
     11     -40.4082      1.00000
     12     -40.4082      1.00000
     13       2.6288      1.00000
     14       4.1785      1.00000
     15       4.2341      1.00000
     16       4.2341      1.00000
     17       4.3991      1.00000
     18       4.4647      1.00000
     19       4.4647      1.00000
     20       6.2873      1.00000
     21       6.6098      1.00000
     22       6.6098      1.00000
     23       7.8687      1.00000
     24       8.1176      1.00000
     25       8.5894      1.00000
     26       8.5894      1.00000
     27       8.9349      1.00000
     28       8.9349      1.00000
     29       9.1001      1.00208
     30       9.1902      1.02925
     31       9.1902      1.02925
     32       9.4818     -0.02966
     33       9.4818     -0.02966
     34      11.2609     -0.00000
     35      13.7776      0.00000
     36      13.7776      0.00000
     37      19.7770      0.00000
[...]
     38      17.2371      0.00000
     39      17.2371      0.00000
     40      17.2371      0.00000

 k-point    81 :       0.4167    0.4167    0.4167
  band No.  band energies     occupation 
      1     -40.5618      1.00000
      2     -40.5618      1.00000
      3     -40.5618      1.00000
      4     -40.5474      1.00000
      5     -40.2591      1.00000
      6     -40.2591      1.00000
      7     -40.2591      1.00000
      8     -40.2492      1.00000
      9     -40.2492      1.00000
     10     -40.2492      1.00000
     11     -40.2395      1.00000
     12     -40.2395      1.00000
     13       4.2615      1.00000
     14       4.3879      1.00000
     15       4.3879      1.00000
     16       4.3879      1.00000
     17       6.4631      1.00000
     18       6.4631      1.00000
     19       6.4631      1.00000
     20       6.6496      1.00000
     21       6.6497      1.00000
     22       6.7457      1.00000
     23       6.7457      1.00000
     24       6.7457      1.00000
     25       8.4234      1.00000
     26       8.4234      1.00000
     27       8.4234      1.00000
     28       9.2233      1.03395
     29       9.2233      1.03395
     30       9.3575      0.32653
     31       9.4029      0.05326
     32       9.4029      0.05326
     33       9.4029      0.05326
     34      11.3163     -0.00000
     35      11.3163     -0.00000
     36      11.3163     -0.00000
     37      16.7168      0.00000
     38      16.7168      0.00000
     39      16.7168      0.00000
     40      17.8938      0.00000

 k-point    82 :       0.5000    0.4167    0.4167
  band No.  band energies     occupation 
      1     -40.5665      1.00000
      2     -40.5665      1.00000
      3     -40.5594      1.00000
      4     -40.5594      1.00000
      5     -40.2567      1.00000
      6     -40.2567      1.00000
      7     -40.2469      1.00000
      8     -40.2469      1.00000
      9     -40.2445      1.00000
     10     -40.2445      1.00000
     11     -40.2443      1.00000
     12     -40.2443      1.00000
     13       4.2820      1.00000
     14       4.2820      1.00000
     15       4.3446      1.00000
     16       4.3446      1.00000
     17       6.4923      1.00000
     18       6.4923      1.00000
     19       6.5793      1.00000
     20       6.5793      1.00000
     21       6.6602      1.00000
     22       6.6602      1.00000
     23       6.6985      1.00000
     24       6.6985      1.00000
     25       8.6464      1.00000
     26       8.6464      1.00000
     27       8.8577      1.00000
     28       8.8577      1.00000
     29       9.3646      0.27199
     30       9.3646      0.27199
     31       9.3720      0.21932
     32       9.3720      0.21932
     33      10.3043     -0.00000
     34      10.3043     -0.00000
     35      11.2610     -0.00000
     36      11.2610     -0.00000
     37      16.5359      0.00000
     38      16.5359      0.00000
     39      17.2024      0.00000
     40      17.2024      0.00000

 k-point    83 :       0.5000    0.5000    0.4167
  band No.  band energies     occupation 
      1     -40.5678      1.00000
      2     -40.5678      1.00000
      3     -40.5678      1.00000
      4     -40.5678      1.00000
      5     -40.2482      1.00000
      6     -40.2482      1.00000
      7     -40.2482      1.00000
      8     -40.2482      1.00000
      9     -40.2432      1.00000
     10     -40.2432      1.00000
     11     -40.2432      1.00000
     12     -40.2432      1.00000
     13       4.2677      1.00000
     14       4.2677      1.00000
     15       4.2677      1.00000
     16       4.2677      1.00000
     17       6.5689      1.00000
     18       6.5689      1.00000
     19       6.5689      1.00000
     20       6.5689      1.00000
     21       6.6310      1.00000
     22       6.6310      1.00000
     23       6.6310      1.00000
     24       6.6310      1.00000
     25       9.0328      1.00008
     26       9.0328      1.00008
     27       9.0328      1.00008
     28       9.0328      1.00008
     29       9.3372      0.49433
     30       9.3372      0.49433
     31       9.3372      0.49433
     32       9.3372      0.49433
     33      10.6395     -0.00000
     34      10.6395     -0.00000
     35      10.6395     -0.00000
     36      10.6395     -0.00000
     37      16.7179      0.00000
     38      16.7179      0.00000
     39      16.7179      0.00000
     40      16.7179      0.00000

 k-point    84 :       0.5000    0.5000    0.5000
  band No.  band energies     occupation 
      1     -40.5728      1.00000
      2     -40.5728      1.00000
      3     -40.5728      1.00000
      4     -40.5728      1.00000
      5     -40.2432      1.00000
      6     -40.2432      1.00000
      7     -40.2432      1.00000
      8     -40.2432      1.00000
      9     -40.2432      1.00000
     10     -40.2432      1.00000
     11     -40.2432      1.00000
     12     -40.2432      1.00000
     13       4.2201      1.00000
     14       4.2201      1.00000
     15       4.2201      1.00000
     16       4.2201      1.00000
     17       6.5928      1.00000
     18       6.5928      1.00000
     19       6.5928      1.00000
     20       6.5928      1.00000
     21       6.5928      1.00000
     22       6.5928      1.00000
     23       6.5928      1.00000
     24       6.5928      1.00000
     25       9.3918      0.10221
     26       9.3918      0.10221
     27       9.3918      0.10221
     28       9.3918      0.10221
     29       9.3918      0.10221
     30       9.3918      0.10221
     31       9.3918      0.10221
     32       9.3918      0.10221
     33      10.3573     -0.00000
     34      10.3573     -0.00000
     35      10.3573     -0.00000
     36      10.3573     -0.00000
     37      16.5435      0.00000
     38      16.5435      0.00000
     39      16.5435      0.00000
     40      16.5435      0.00000


--------------------------------------------------------------------------------------------------------


 soft charge-density along one line, spin component            1
         0         1         2         3         4         5         6         7         8         9
 total charge-density along one line
 
 soft charge-density along one line, spin component            2
         0         1         2         3         4         5         6         7         8         9
 total charge-density along one line
 
 pseudopotential strength for first ion, spin component:            1
-37.305  -0.000  -0.000   8.282   0.000   0.000  -0.000   0.000
 -0.000 -37.305  -0.000   0.000   8.282   0.000  -0.000  -0.000
 -0.000  -0.000 -37.305   0.000   0.000   8.282  -0.000  -0.000
  8.282   0.000   0.000   7.865  -0.000  -0.000   0.000  -0.000
  0.000   8.282   0.000  -0.000   7.865  -0.000   0.000   0.000
  0.000   0.000   8.282  -0.000  -0.000   7.865   0.000   0.000
 -0.000  -0.000  -0.000   0.000   0.000   0.000  -2.362  -0.000
  0.000  -0.000  -0.000  -0.000   0.000   0.000  -0.000  -2.362
  0.000   0.000   0.000  -0.000  -0.000  -0.000   0.000   0.000
 -0.000  -0.000   0.000   0.000   0.000  -0.000  -0.000  -0.000
  0.000   0.000   0.000  -0.000  -0.000  -0.000  -0.000   0.000
 -0.000  -0.000  -0.000   0.000   0.000   0.000  -2.019  -0.000
  0.000  -0.000  -0.000  -0.000   0.000   0.000  -0.000  -2.019
  0.000   0.000   0.000  -0.000  -0.000  -0.000   0.000   0.000
 -0.000  -0.000   0.000   0.000  -0.000  -0.000  -0.000  -0.000
  0.000   0.000   0.000  -0.000  -0.000  -0.000  -0.000   0.000
  0.000  -0.000   0.000   0.000  -0.000   0.000   0.000   0.000
  0.000  -0.000   0.000   0.000  -0.000   0.000   0.000   0.000
 pseudopotential strength for first ion, spin component:            2
-37.191  -0.000  -0.000   8.223   0.000   0.000  -0.000   0.000
 -0.000 -37.191  -0.000   0.000   8.223   0.000  -0.000  -0.000
 -0.000  -0.000 -37.191   0.000   0.000   8.223  -0.000  -0.000
  8.223   0.000   0.000   7.881  -0.000  -0.000   0.000  -0.000
  0.000   8.223   0.000  -0.000   7.881  -0.000   0.000   0.000
  0.000   0.000   8.223  -0.000  -0.000   7.881   0.000   0.000
 -0.000  -0.000  -0.000   0.000   0.000   0.000  -2.238  -0.000
  0.000  -0.000  -0.000  -0.000   0.000   0.000  -0.000  -2.238
  0.000   0.000   0.000  -0.000  -0.000  -0.000   0.000   0.000
 -0.000  -0.000   0.000   0.000   0.000  -0.000  -0.000  -0.000
  0.000   0.000   0.000  -0.000  -0.000  -0.000  -0.000   0.000
 -0.000  -0.000  -0.000   0.000   0.000   0.000  -1.882  -0.000
  0.000  -0.000  -0.000  -0.000   0.000   0.000  -0.000  -1.882
  0.000   0.000   0.000  -0.000  -0.000  -0.000   0.000   0.000
 -0.000  -0.000   0.000   0.000   0.000  -0.000  -0.000  -0.000
  0.000   0.000   0.000  -0.000  -0.000  -0.000  -0.000   0.000
  0.000  -0.000   0.000   0.000  -0.000   0.000   0.000   0.000
  0.000  -0.000   0.000   0.000  -0.000   0.000   0.000   0.000
 total augmentation occupancy for first ion, spin component:            1
  1.998   0.000   0.000  -0.014  -0.000  -0.000  -0.000   0.000  -0.000  -0.000  -0.000   0.000  -0.000  -0.000   0.000  -0.000
  0.000   1.998   0.000  -0.000  -0.014  -0.000   0.000  -0.000   0.000   0.000   0.000  -0.000   0.000   0.000   0.000  -0.000
  0.000   0.000   1.998  -0.000  -0.000  -0.014  -0.000  -0.000   0.000   0.000   0.000   0.000  -0.000   0.000   0.000  -0.000
 -0.014  -0.000  -0.000   0.104   0.000   0.000  -0.000  -0.000   0.000  -0.000   0.000   0.000  -0.000  -0.000  -0.000   0.000
 -0.000  -0.014  -0.000   0.000   0.104   0.000   0.000   0.000   0.000  -0.000  -0.000  -0.000  -0.000   0.000   0.000   0.000
 -0.000  -0.000  -0.014   0.000   0.000   0.104   0.000   0.000  -0.000   0.000  -0.000  -0.000  -0.000  -0.000   0.000   0.000
 -0.000   0.000  -0.000  -0.000   0.000   0.000   2.760   0.000  -0.000   0.000   0.000  -0.739  -0.000   0.000  -0.000  -0.000
  0.000  -0.000  -0.000  -0.000   0.000   0.000   0.000   2.760   0.000   0.000  -0.000  -0.000  -0.739  -0.000  -0.000   0.000
 -0.000   0.000   0.000  -0.000   0.000  -0.000  -0.000   0.000   2.531   0.000   0.000   0.000  -0.000  -0.546  -0.000  -0.000
 -0.000   0.000   0.000  -0.000  -0.000   0.000   0.000   0.000   0.000   2.760   0.000  -0.000  -0.000  -0.000  -0.739  -0.000
  0.000   0.000  -0.000  -0.000  -0.000   0.000   0.000  -0.000   0.000   0.000   2.531  -0.000   0.000  -0.000  -0.000  -0.546
  0.000  -0.000   0.000   0.000  -0.000  -0.000  -0.739  -0.000   0.000  -0.000  -0.000   0.472   0.000  -0.000   0.000   0.000
 -0.000   0.000  -0.000  -0.000  -0.000  -0.000  -0.000  -0.739  -0.000  -0.000   0.000   0.000   0.472   0.000   0.000  -0.000
  0.000   0.000   0.000  -0.000  -0.000  -0.000   0.000  -0.000  -0.546  -0.000  -0.000  -0.000   0.000   0.428   0.000   0.000
  0.000   0.000   0.000  -0.000   0.000   0.000  -0.000  -0.000  -0.000  -0.739  -0.000   0.000   0.000   0.000   0.472   0.000
  0.000  -0.000   0.000  -0.000  -0.000  -0.000  -0.000   0.000  -0.000  -0.000  -0.546   0.000  -0.000   0.000   0.000   0.428
  0.000  -0.000  -0.000   0.000   0.000   0.000   0.000   0.000   0.000   0.000  -0.000   0.000   0.000   0.000  -0.000  -0.000
  0.000   0.000   0.000   0.000  -0.000  -0.000  -0.000  -0.000   0.000  -0.000  -0.000   0.000   0.000   0.000  -0.000   0.000
 total augmentation occupancy for first ion, spin component:            2
  0.000   0.000   0.000   0.000   0.000   0.000   0.000   0.000  -0.000  -0.000   0.000   0.000   0.000  -0.000   0.000   0.000
  0.000   0.000   0.000   0.000   0.000  -0.000  -0.000   0.000  -0.000  -0.000   0.000  -0.000  -0.000   0.000  -0.000   0.000
  0.000   0.000   0.000   0.000  -0.000   0.000   0.000   0.000  -0.000   0.000   0.000   0.000   0.000   0.000  -0.000   0.000
  0.000   0.000   0.000  -0.002  -0.000  -0.000   0.000   0.000   0.000   0.000  -0.000   0.000   0.000  -0.000   0.000  -0.000
  0.000   0.000  -0.000  -0.000  -0.002  -0.000  -0.000   0.000   0.000   0.000  -0.000   0.000   0.000   0.000   0.000  -0.000
  0.000  -0.000   0.000  -0.000  -0.000  -0.002   0.000   0.000   0.000  -0.000   0.000   0.000  -0.000  -0.000   0.000   0.000
  0.000  -0.000   0.000   0.000  -0.000   0.000  -0.039  -0.000   0.000  -0.000  -0.000   0.041   0.000  -0.000   0.000   0.000
  0.000   0.000   0.000   0.000   0.000   0.000  -0.000  -0.039  -0.000  -0.000   0.000   0.000   0.041   0.000   0.000  -0.000
 -0.000   0.000   0.000   0.000   0.000   0.000   0.000  -0.000  -0.029  -0.000  -0.000  -0.000   0.000   0.024   0.000   0.000
 -0.000  -0.000   0.000   0.000   0.000  -0.000  -0.000  -0.000  -0.000  -0.039  -0.000   0.000   0.000   0.000   0.041   0.000
  0.000  -0.000   0.000  -0.000  -0.000   0.000  -0.000   0.000  -0.000  -0.000  -0.029   0.000  -0.000   0.000   0.000   0.024
  0.000  -0.000   0.000   0.000   0.000   0.000   0.041   0.000  -0.000   0.000   0.000   0.025   0.000  -0.000   0.000   0.000
  0.000  -0.000   0.000   0.000   0.000  -0.000   0.000   0.041   0.000   0.000  -0.000   0.000   0.025   0.000   0.000  -0.000
  0.000   0.000   0.000  -0.000   0.000   0.000  -0.000   0.000   0.024   0.000   0.000  -0.000   0.000   0.008   0.000   0.000
  0.000  -0.000  -0.000   0.000   0.000   0.000   0.000   0.000   0.000   0.041   0.000   0.000   0.000   0.000   0.025  -0.000
  0.000   0.000   0.000   0.000  -0.000   0.000   0.000  -0.000   0.000   0.000   0.024   0.000  -0.000   0.000  -0.000   0.008
  0.000   0.000   0.000   0.000   0.000  -0.000   0.000  -0.000   0.000  -0.000  -0.000   0.000  -0.000   0.000   0.000   0.000
  0.000   0.000  -0.000   0.000   0.000  -0.000   0.000   0.000   0.000   0.000   0.000  -0.000   0.000  -0.000   0.000  -0.000


------------------------ aborting loop because EDIFF is reached ----------------------------------------





 total charge

# of ion       s       p       d       tot
------------------------------------------
    1        0.315   6.173   7.979  14.466
    2        0.315   6.173   7.979  14.466
    3        0.315   6.173   7.979  14.466
    4        0.315   6.173   7.979  14.466
--------------------------------------------------
tot          1.259  24.691  31.915  57.865



 magnetization (x)

# of ion       s       p       d       tot
------------------------------------------
    1       -0.002  -0.003   0.254   0.250
    2       -0.002  -0.003   0.254   0.250
    3       -0.002  -0.003   0.254   0.250
    4       -0.002  -0.003   0.254   0.250
--------------------------------------------------
tot         -0.007  -0.012   1.017   0.998
 
    CHARGE:  cpu time      0.5369: real time      0.5369
    FORLOC:  cpu time      0.0008: real time      0.0008
    FORNL :  cpu time      0.9723: real time      0.9730
    FORCOR:  cpu time      0.4536: real time      0.4539
    FORHAR:  cpu time      0.0044: real time      0.0044
    MIXING:  cpu time      0.0014: real time      0.0015
    OFIELD:  cpu time      0.0000: real time      0.0000

 ---------------------------------------------------------------------------------------------

         DFTD3 V3.0 Rev 1        
 DF pbe       
 parameters
 k1-k3        =   16.0000    1.3333   -4.0000
 Edisp (eV)   -2.62093

 E6    (eV) :    -1.4629
 E8    (eV) :    -1.1581
 % E8        : 44.19
    FORVDW:  cpu time      0.0072: real time      0.0072

 VOLUME and BASIS-vectors are now :
 -----------------------------------------------------------------------------
  energy-cutoff  :      550.00
  volume of cell :       60.11
      direct lattice vectors                 reciprocal lattice vectors
     3.917301575  0.000000000  0.000000000     0.255277767 -0.000000000  0.000000000
     0.000000000  3.917301575  0.000000000     0.000000000  0.255277767  0.000000000
     0.000000000  0.000000000  3.917301575    -0.000000000 -0.000000000  0.255277767

  length of vectors
     3.917301575  3.917301575  3.917301575     0.255277767  0.255277767  0.255277767


 FORCES acting on ions
    electron-ion (+dipol)            ewald-force                    non-local-force                 convergence-correction
 -----------------------------------------------------------------------------------------------
   -.176E-14 -.341E-13 -.101E-12   -.366E-13 -.348E-13 0.417E-14   0.247E-25 0.258E-25 0.155E-24   -.171E-13 0.112E-13 -.842E-13
   -.835E-14 0.475E-12 0.402E-12   -.388E-13 0.552E-14 0.106E-13   0.105E-25 0.258E-25 0.103E-24   -.375E-14 0.390E-13 -.200E-14
   0.509E-12 -.341E-13 -.157E-11   0.424E-13 -.761E-14 0.104E-13   0.293E-25 0.517E-25 0.517E-25   0.797E-13 0.218E-14 0.469E-13
   0.515E-12 0.660E-11 -.465E-11   0.402E-13 0.327E-13 -.238E-13   -.381E-25 0.517E-25 0.000E+00   0.766E-13 0.647E-13 -.950E-13
 -----------------------------------------------------------------------------------------------
   0.101E-11 0.701E-11 -.591E-11   0.725E-14 -.417E-14 0.136E-14   0.265E-25 0.155E-24 0.310E-24   0.135E-12 0.117E-12 -.134E-12
 
 
 POSITION                                       TOTAL-FORCE (eV/Angst)
 -----------------------------------------------------------------------------------
      0.00000      0.00000      0.00000        -0.000000     -0.000000     -0.000000
      0.00000      1.95865      1.95865         0.000000      0.000000     -0.000000
      1.95865      0.00000      1.95865        -0.000000      0.000000      0.000000
      1.95865      1.95865      0.00000        -0.000000     -0.000000      0.000000
 -----------------------------------------------------------------------------------
    total drift:                                0.000000      0.000000     -0.000000


--------------------------------------------------------------------------------------------------------



  FREE ENERGIE OF THE ION-ELECTRON SYSTEM (eV)
  ---------------------------------------------------
  free  energy   TOTEN  =       -23.44894795 eV

  energy  without entropy=      -23.44881944  energy(sigma->0) =      -23.44890512
 


--------------------------------------------------------------------------------------------------------


    POTLOK:  cpu time      0.4546: real time      0.4551


--------------------------------------------------------------------------------------------------------


     LOOP+:  cpu time    158.2350: real time    158.5324
    4ORBIT:  cpu time      0.0000: real time      0.0000



 total charge

# of ion       s       p       d       tot
------------------------------------------
    1        0.315   6.173   7.979  14.466
    2        0.315   6.173   7.979  14.466
    3        0.315   6.173   7.979  14.466
    4        0.315   6.173   7.979  14.466
--------------------------------------------------
tot          1.259  24.691  31.915  57.865



 magnetization (x)

# of ion       s       p       d       tot
------------------------------------------
    1       -0.002  -0.003   0.254   0.250
    2       -0.002  -0.003   0.254   0.250
    3       -0.002  -0.003   0.254   0.250
    4       -0.002  -0.003   0.254   0.250
--------------------------------------------------
tot         -0.007  -0.012   1.017   0.998
 

 total amount of memory used by VASP MPI-rank0   116313. kBytes
=======================================================================

   base      :      30000. kBytes
   nonl-proj :      21790. kBytes
   fftplans  :       8118. kBytes
   grid      :       6177. kBytes
   one-center:        124. kBytes
   wavefun   :      50104. kBytes
 
  
  
 General timing and accounting informations for this job:
 ========================================================
  
                  Total CPU time used (sec):      209.669
                            User time (sec):      206.101
                          System time (sec):        3.568
                         Elapsed time (sec):      211.854
  
                   Maximum memory used (kb):      412520.
                   Average memory used (kb):          N/A
  
                          Minor page faults:       478007
                          Major page faults:            0
                 Voluntary context switches:          545
