       N       E                     dE             d eps       ncg     rms          rms(c)
DAV:   1     0.413147045245E+03    0.41315E+03   -0.24359E+04  6932   0.149E+03
DAV:   2    -0.436247843658E+01   -0.41751E+03   -0.40441E+03  7400   0.450E+02
DAV:   3    -0.241193617617E+02   -0.19757E+02   -0.19531E+02  7452   0.103E+02
DAV:   4    -0.243333655972E+02   -0.21400E+00   -0.21388E+00  7224   0.118E+01
DAV:   5    -0.243356667883E+02   -0.23012E-02   -0.23011E-02  7464   0.123E+00    0.175E+01
DAV:   6    -0.227150966874E+02    0.16206E+01   -0.14950E+01  7028   0.349E+01    0.701E+00
DAV:   7    -0.222089099804E+02    0.50619E+00   -0.24436E+00  7012   0.166E+01    0.365E+00
DAV:   8    -0.222280062885E+02   -0.19096E-01   -0.39559E-01  7100   0.396E+00    0.148E+00
DAV:   9    -0.222258610925E+02    0.21452E-02   -0.22863E-02  7316   0.137E+00    0.437E-01
DAV:  10    -0.222275203558E+02   -0.16593E-02   -0.26073E-03  7160   0.416E-01    0.175E-01
DAV:  11    -0.222277172355E+02   -0.19688E-03   -0.35064E-04  7368   0.125E-01    0.850E-02
DAV:  12    -0.222277279549E+02   -0.10719E-04   -0.51426E-05  7196   0.528E-02    0.208E-02
DAV:  13    -0.222277379350E+02   -0.99801E-05   -0.13362E-05  7152   0.263E-02    0.846E-03
DAV:  14    -0.222277395256E+02   -0.15906E-05   -0.18490E-06  5284   0.110E-02    0.328E-03
DAV:  15    -0.222277397389E+02   -0.21337E-06   -0.54619E-07  4264   0.590E-03
   1 F= -.23471463E+02 E0= -.23470751E+02  d E =-.142445E-02  mag=    -0.0000
