 vasp.6.4.3 19Mar24 (build Nov 27 2025 15:18:09) complex                         
 executed on              LinuxNV date 2026.06.04  16:38:42
 running    4 mpi-ranks, with    1 threads/rank, on    1 nodes
 distrk:  each k-point on    4 cores,    1 groups
 distr:  one band on NCORE=   1 cores,    4 groups
 OpenACC runtime initialized ...    0 GPUs detected


--------------------------------------------------------------------------------------------------------


 INCAR:
   SYSTEM = pddmc
   ENCUT = 400
   PREC = Accurate
   LASPH = .TRUE.
   ADDGRID = .TRUE.
   ISPIN = 2
   IVDW = 12
   EDIFF = 1e-06
   NELM = 200
   NELMIN = 5
   ALGO = Normal
   NCORE = 1
   LREAL = .FALSE.
   LWAVE = .FALSE.
   LCHARG = .FALSE.
   LORBIT = 11
   ISYM = 2
   IBRION = -1
   NSW = 0
   ISIF = 0
   ISMEAR = 0
   SIGMA = 0.05
   EDIFFG = -0.01

 POTCAR:    PAW_PBE Pd_pv 28Jan2005               
 POTCAR:    PAW_PBE O 08Apr2002                   
 -----------------------------------------------------------------------------
|                                                                             |
|           W    W    AA    RRRRR   N    N  II  N    N   GGGG   !!!           |
|           W    W   A  A   R    R  NN   N  II  NN   N  G    G  !!!           |
|           W    W  A    A  R    R  N N  N  II  N N  N  G       !!!           |
|           W WW W  AAAAAA  RRRRR   N  N N  II  N  N N  G  GGG   !            |
|           WW  WW  A    A  R   R   N   NN  II  N   NN  G    G                |
|           W    W  A    A  R    R  N    N  II  N    N   GGGG   !!!           |
|                                                                             |
|     You use a magnetic or noncollinear calculation, but did not specify     |
|     the initial magnetic moment with the MAGMOM tag. Note that a            |
|     default of 1 will be used for all atoms. This ferromagnetic setup       |
|     may break the symmetry of the crystal, in particular it may rule        |
|     out finding an antiferromagnetic solution. Thence, we recommend         |
|     setting the initial magnetic moment manually or verifying carefully     |
|     that this magnetic setup is desired.                                    |
|                                                                             |
 -----------------------------------------------------------------------------

 POTCAR:    PAW_PBE Pd_pv 28Jan2005               
   SHA256 =  3ce661545bbde58da9a95410dea32907db2844916708bcd35bbe03ee66324d7f Pd_pv/POTCAR          
   COPYR  = (c) Copyright 28Jan2005 Georg Kresse                                                    
   COPYR  = This file is part of the software VASP. Any use, copying, and all other rights are regul
   COPYR  = If you do not have a valid VASP license, you may not use, copy or distribute this file. 
   VRHFIN =Pd: 4p5s4d                                                                               
   LEXCH  = PE                                                                                      
   EATOM  =  2621.5550 eV,  192.6789 Ry                                                             
                                                                                                    
   TITEL  = PAW_PBE Pd_pv 28Jan2005                                                                 
   LULTRA =        F    use ultrasoft PP ?                                                          
   IUNSCR =        1    unscreen: 0-lin 1-nonlin 2-no                                               
   RPACOR =    2.250    partial core radius                                                         
   POMASS =  106.420; ZVAL   =   16.000    mass and valenz                                          
   RCORE  =    2.400    outmost cutoff radius                                                       
   RWIGS  =    2.300; RWIGS  =    1.217    wigner-seitz radius (au A)                               
   ENMAX  =  250.925; ENMIN  =  188.194 eV                                                          
   ICORE  =        3    local potential                                                             
   LCOR   =        T    correct aug charges                                                         
   LPAW   =        T    paw PP                                                                      
   EAUG   =  473.067                                                                                
   DEXC   =    0.000                                                                                
   RMAX   =    2.449    core radius for proj-oper                                                   
   RAUG   =    1.300    factor for augmentation sphere                                              
   RDEP   =    2.405    radius for radial grids                                                     
   RDEPT  =    1.966    core radius for aug-charge                                                  
                                                                                                    
   Atomic configuration                                                                             
   11 entries                                                                                       
     n  l   j            E        occ.                                                              
     1  0  0.50    -24164.6632   2.0000                                                             
     2  0  0.50     -3530.9218   2.0000                                                             
     2  1  1.50     -3165.6822   6.0000                                                             
     3  0  0.50      -639.4578   2.0000                                                             
     3  1  1.50      -519.4532   6.0000                                                             
     3  2  2.50      -328.9758  10.0000                                                             
     4  0  0.50       -88.7014   2.0000                                                             
     4  1  1.50       -54.4541   6.0000                                                             
     4  2  2.50        -6.6878   9.0000                                                             
     5  0  0.50        -4.3543   1.0000                                                             
     4  3  2.50        -1.3606   0.0000                                                             
   Description                                                                                      
     l       E           TYP  RCUT    TYP  RCUT                                                     
     1    -54.4540524     23  2.100                                                                 
     1      4.0817478     23  2.100                                                                 
     2     -6.6878326     23  2.400                                                                 
     2     -4.0817478     23  2.400                                                                 
     0     -4.3542962     23  2.400                                                                 
     0     13.6058260     23  2.400                                                                 
     3     -5.4423304     23  2.400                                                                 
  local pseudopotential read in
  partial core-charges read in
  partial kinetic energy density read in
  atomic valenz-charges read in
  non local Contribution for L=            1  read in
    real space projection operators read in
  non local Contribution for L=            1  read in
    real space projection operators read in
  non local Contribution for L=            2  read in
    real space projection operators read in
  non local Contribution for L=            2  read in
    real space projection operators read in
  non local Contribution for L=            0  read in
    real space projection operators read in
  non local Contribution for L=            0  read in
    real space projection operators read in
    PAW grid and wavefunctions read in
 
   number of l-projection  operators is LMAX  =            6
   number of lm-projection operators is LMMAX =           18
 
 POTCAR:    PAW_PBE O 08Apr2002                   
   SHA256 =  818f92134a0a090dccd8ba1447fa70422a3b330e708bb4f08108d8ae51209ddf O/POTCAR              
   COPYR  = (c) Copyright 08Apr2002 Georg Kresse                                                    
   COPYR  = This file is part of the software VASP. Any use, copying, and all other rights are regul
   COPYR  = If you do not have a valid VASP license, you may not use, copy or distribute this file. 
   VRHFIN =O: s2p4                                                                                  
   LEXCH  = PE                                                                                      
   EATOM  =   432.3788 eV,   31.7789 Ry                                                             
                                                                                                    
   TITEL  = PAW_PBE O 08Apr2002                                                                     
   LULTRA =        F    use ultrasoft PP ?                                                          
   IUNSCR =        1    unscreen: 0-lin 1-nonlin 2-no                                               
   RPACOR =    1.200    partial core radius                                                         
   POMASS =   16.000; ZVAL   =    6.000    mass and valenz                                          
   RCORE  =    1.520    outmost cutoff radius                                                       
   RWIGS  =    1.550; RWIGS  =    0.820    wigner-seitz radius (au A)                               
   ENMAX  =  400.000; ENMIN  =  300.000 eV                                                          
   ICORE  =        2    local potential                                                             
   LCOR   =        T    correct aug charges                                                         
   LPAW   =        T    paw PP                                                                      
   EAUG   =  605.392                                                                                
   DEXC   =    0.000                                                                                
   RMAX   =    1.553    core radius for proj-oper                                                   
   RAUG   =    1.300    factor for augmentation sphere                                              
   RDEP   =    1.550    radius for radial grids                                                     
   RDEPT  =    1.329    core radius for aug-charge                                                  
                                                                                                    
   Atomic configuration                                                                             
    4 entries                                                                                       
     n  l   j            E        occ.                                                              
     1  0  0.50      -514.6923   2.0000                                                             
     2  0  0.50       -23.9615   2.0000                                                             
     2  1  0.50        -9.0305   4.0000                                                             
     3  2  1.50        -9.5241   0.0000                                                             
   Description                                                                                      
     l       E           TYP  RCUT    TYP  RCUT                                                     
     0    -23.9615318     23  1.200                                                                 
     0     -9.5240782     23  1.200                                                                 
     1     -9.0304911     23  1.520                                                                 
     1      8.1634956     23  1.520                                                                 
     2     -9.5240782      7  1.500                                                                 
  local pseudopotential read in
  partial core-charges read in
  partial kinetic energy density read in
  kinetic energy density of atom read in
  atomic valenz-charges read in
  non local Contribution for L=            0  read in
    real space projection operators read in
  non local Contribution for L=            0  read in
    real space projection operators read in
  non local Contribution for L=            1  read in
    real space projection operators read in
  non local Contribution for L=            1  read in
    real space projection operators read in
    PAW grid and wavefunctions read in
 
   number of l-projection  operators is LMAX  =            4
   number of lm-projection operators is LMMAX =            8
 
  PAW_PBE Pd_pv 28Jan2005               :
 energy of atom  1       EATOM=-2621.5550
 kinetic energy error for atom=    0.0211 (will be added to EATOM!!)
  PAW_PBE O 08Apr2002                   :
 energy of atom  2       EATOM= -432.3788
 kinetic energy error for atom=    0.1156 (will be added to EATOM!!)
 
 
 POSCAR: Pd O
  positions in cartesian coordinates
  No initial velocities read in
 IVDW         = 12
 VDW_S6       =    1.0000
 VDW_S8       =    0.7875
 VDW_A1       =    0.4289
 VDW_A2       =    4.4407
 VDW_RADIUS   =   50.2022 A
 VDW_CNRADIUS =   21.1671 A


 exchange-correlation table for PE
   RHO(1)=    0.500       N(1)  =     2000
   RHO(2)=  100.500       N(2)  =     4000
 


--------------------------------------------------------------------------------------------------------


 ion  position               nearest neighbor table
   1  0.500  0.000  0.500-   3 2.03   4 2.03   3 2.03   4 2.03
   2  0.000  0.500  0.000-   3 2.03   4 2.03   3 2.03   4 2.03
   3  0.000  0.000  0.750-   1 2.03   2 2.03   2 2.03   1 2.03
   4  0.000  0.000  0.250-   1 2.03   2 2.03   2 2.03   1 2.03
 
  LATTYP: Found a simple tetragonal cell.
 ALAT       =     3.0536041100
 C/A-ratio  =     1.7589892457
  
  Lattice vectors:
  
 A1 = (   3.0536041100,   0.0000000000,   0.0000000000)
 A2 = (   0.0000000000,   3.0536041100,   0.0000000000)
 A3 = (   0.0000000000,   0.0000000000,   5.3712567900)


Analysis of symmetry for initial positions (statically):
=====================================================================
 Subroutine PRICEL returns:
 Original cell was already a primitive cell.
 

 Routine SETGRP: Setting up the symmetry group for a 
 simple tetragonal supercell.


 Subroutine GETGRP returns: Found 16 space group operations
 (whereof  8 operations were pure point group operations)
 out of a pool of 16 trial point group operations.


The static configuration has the point symmetry D_2h.
 The point group associated with its full space group is D_4h.


Analysis of symmetry for dynamics (positions and initial velocities):
=====================================================================
 Subroutine PRICEL returns:
 Original cell was already a primitive cell.
 

 Routine SETGRP: Setting up the symmetry group for a 
 simple tetragonal supercell.


 Subroutine GETGRP returns: Found 16 space group operations
 (whereof  8 operations were pure point group operations)
 out of a pool of 16 trial point group operations.


The dynamic configuration has the point symmetry D_2h.
 The point group associated with its full space group is D_4h.


Analysis of structural, dynamic, and magnetic symmetry:
=====================================================================
 Subroutine PRICEL returns:
 Original cell was already a primitive cell.
 

 Routine SETGRP: Setting up the symmetry group for a 
 simple tetragonal supercell.


 Subroutine GETGRP returns: Found 16 space group operations
 (whereof  8 operations were pure point group operations)
 out of a pool of 16 trial point group operations.


The overall configuration has the point symmetry D_2h.
 The point group associated with its full space group is D_4h.


 Subroutine INISYM returns: Found 16 space group operations
 (whereof  8 operations are pure point group operations),
 and found     1 'primitive' translations


----------------------------------------------------------------------------------------

                                     Primitive cell                                     

  volume of cell :      50.0843

  direct lattice vectors                    reciprocal lattice vectors
     3.053604110  0.000000000  0.000000000     0.327481875 -0.000000000  0.000000000
     0.000000000  3.053604110  0.000000000     0.000000000  0.327481875  0.000000000
     0.000000000  0.000000000  5.371256790    -0.000000000 -0.000000000  0.186176167

  length of vectors
     3.053604110  3.053604110  5.371256790     0.327481875  0.327481875  0.186176167

  position of ions in fractional coordinates (direct lattice)
     0.500000000  0.000000000  0.500000000
     0.000000000  0.500000000  0.000000000
     0.000000000  0.000000000  0.750000000
     0.000000000  0.000000000  0.250000000

  ion indices of the primitive-cell ions
   primitive index   ion index
                 1           1
                 2           2
                 3           3
                 4           4

----------------------------------------------------------------------------------------

 
 
 KPOINTS: Automatic mesh                          

Automatic generation of k-mesh.
 Grid dimensions read from file:
 generate k-points for:    8    8    6

 Generating k-lattice:

  Cartesian coordinates                     Fractional coordinates (reciprocal lattice)
     0.040935234 -0.000000000  0.000000000     0.125000000  0.000000000  0.000000000
     0.000000000  0.040935234  0.000000000     0.000000000  0.125000000  0.000000000
    -0.000000000 -0.000000000  0.031029361     0.000000000  0.000000000  0.166666667

  Length of vectors
     0.040935234  0.040935234  0.031029361

  Shift w.r.t. Gamma in fractional coordinates (k-lattice)
     0.000000000  0.000000000  0.000000000

 
 Subroutine IBZKPT returns following result:
 ===========================================
 
 Found     60 irreducible k-points:
 
 Following reciprocal coordinates:
            Coordinates               Weight
  0.000000  0.000000  0.000000      1.000000
  0.125000  0.000000  0.000000      4.000000
  0.250000  0.000000  0.000000      4.000000
  0.375000  0.000000  0.000000      4.000000
  0.500000  0.000000  0.000000      2.000000
  0.125000  0.125000  0.000000      4.000000
  0.250000  0.125000  0.000000      8.000000
  0.375000  0.125000  0.000000      8.000000
  0.500000  0.125000  0.000000      4.000000
  0.250000  0.250000  0.000000      4.000000
  0.375000  0.250000  0.000000      8.000000
  0.500000  0.250000  0.000000      4.000000
  0.375000  0.375000  0.000000      4.000000
  0.500000  0.375000  0.000000      4.000000
  0.500000  0.500000  0.000000      1.000000
  0.000000  0.000000  0.166667      2.000000
  0.125000  0.000000  0.166667      8.000000
  0.250000  0.000000  0.166667      8.000000
  0.375000  0.000000  0.166667      8.000000
  0.500000  0.000000  0.166667      4.000000
  0.125000  0.125000  0.166667      8.000000
  0.250000  0.125000  0.166667     16.000000
  0.375000  0.125000  0.166667     16.000000
  0.500000  0.125000  0.166667      8.000000
  0.250000  0.250000  0.166667      8.000000
  0.375000  0.250000  0.166667     16.000000
  0.500000  0.250000  0.166667      8.000000
  0.375000  0.375000  0.166667      8.000000
  0.500000  0.375000  0.166667      8.000000
  0.500000  0.500000  0.166667      2.000000
  0.000000  0.000000  0.333333      2.000000
  0.125000  0.000000  0.333333      8.000000
  0.250000  0.000000  0.333333      8.000000
  0.375000  0.000000  0.333333      8.000000
  0.500000  0.000000  0.333333      4.000000
  0.125000  0.125000  0.333333      8.000000
  0.250000  0.125000  0.333333     16.000000
  0.375000  0.125000  0.333333     16.000000
  0.500000  0.125000  0.333333      8.000000
  0.250000  0.250000  0.333333      8.000000
  0.375000  0.250000  0.333333     16.000000
  0.500000  0.250000  0.333333      8.000000
  0.375000  0.375000  0.333333      8.000000
  0.500000  0.375000  0.333333      8.000000
  0.500000  0.500000  0.333333      2.000000
  0.000000  0.000000  0.500000      1.000000
  0.125000  0.000000  0.500000      4.000000
  0.250000  0.000000  0.500000      4.000000
  0.375000  0.000000  0.500000      4.000000
  0.500000  0.000000  0.500000      2.000000
  0.125000  0.125000  0.500000      4.000000
  0.250000  0.125000  0.500000      8.000000
  0.375000  0.125000  0.500000      8.000000
  0.500000  0.125000  0.500000      4.000000
  0.250000  0.250000  0.500000      4.000000
  0.375000  0.250000  0.500000      8.000000
  0.500000  0.250000  0.500000      4.000000
  0.375000  0.375000  0.500000      4.000000
  0.500000  0.375000  0.500000      4.000000
  0.500000  0.500000  0.500000      1.000000
 
 Following cartesian coordinates:
            Coordinates               Weight
  0.000000  0.000000  0.000000      1.000000
  0.040935  0.000000  0.000000      4.000000
  0.081870  0.000000  0.000000      4.000000
  0.122806  0.000000  0.000000      4.000000
  0.163741  0.000000  0.000000      2.000000
  0.040935  0.040935  0.000000      4.000000
  0.081870  0.040935  0.000000      8.000000
  0.122806  0.040935  0.000000      8.000000
  0.163741  0.040935  0.000000      4.000000
  0.081870  0.081870  0.000000      4.000000
  0.122806  0.081870  0.000000      8.000000
  0.163741  0.081870  0.000000      4.000000
  0.122806  0.122806  0.000000      4.000000
  0.163741  0.122806  0.000000      4.000000
  0.163741  0.163741  0.000000      1.000000
  0.000000  0.000000  0.031029      2.000000
  0.040935  0.000000  0.031029      8.000000
  0.081870  0.000000  0.031029      8.000000
  0.122806  0.000000  0.031029      8.000000
  0.163741  0.000000  0.031029      4.000000
  0.040935  0.040935  0.031029      8.000000
  0.081870  0.040935  0.031029     16.000000
  0.122806  0.040935  0.031029     16.000000
  0.163741  0.040935  0.031029      8.000000
  0.081870  0.081870  0.031029      8.000000
  0.122806  0.081870  0.031029     16.000000
  0.163741  0.081870  0.031029      8.000000
  0.122806  0.122806  0.031029      8.000000
  0.163741  0.122806  0.031029      8.000000
  0.163741  0.163741  0.031029      2.000000
  0.000000  0.000000  0.062059      2.000000
  0.040935  0.000000  0.062059      8.000000
  0.081870  0.000000  0.062059      8.000000
  0.122806  0.000000  0.062059      8.000000
  0.163741  0.000000  0.062059      4.000000
  0.040935  0.040935  0.062059      8.000000
  0.081870  0.040935  0.062059     16.000000
  0.122806  0.040935  0.062059     16.000000
  0.163741  0.040935  0.062059      8.000000
  0.081870  0.081870  0.062059      8.000000
  0.122806  0.081870  0.062059     16.000000
  0.163741  0.081870  0.062059      8.000000
  0.122806  0.122806  0.062059      8.000000
  0.163741  0.122806  0.062059      8.000000
  0.163741  0.163741  0.062059      2.000000
  0.000000  0.000000  0.093088      1.000000
  0.040935  0.000000  0.093088      4.000000
  0.081870  0.000000  0.093088      4.000000
  0.122806  0.000000  0.093088      4.000000
  0.163741  0.000000  0.093088      2.000000
  0.040935  0.040935  0.093088      4.000000
  0.081870  0.040935  0.093088      8.000000
  0.122806  0.040935  0.093088      8.000000
  0.163741  0.040935  0.093088      4.000000
  0.081870  0.081870  0.093088      4.000000
  0.122806  0.081870  0.093088      8.000000
  0.163741  0.081870  0.093088      4.000000
  0.122806  0.122806  0.093088      4.000000
  0.163741  0.122806  0.093088      4.000000
  0.163741  0.163741  0.093088      1.000000
 


--------------------------------------------------------------------------------------------------------




 Dimension of arrays:
   k-points           NKPTS =     60   k-points in BZ     NKDIM =     60   number of bands    NBANDS=     28
   number of dos      NEDOS =    301   number of ions     NIONS =      4
   non local maximal  LDIM  =      6   non local SUM 2l+1 LMDIM =     18
   total plane-waves  NPLWV =  14400
   max r-space proj   IRMAX =      1   max aug-charges    IRDMAX=  92273
   dimension x,y,z NGX =    20 NGY =   20 NGZ =   36
   dimension x,y,z NGXF=    40 NGYF=   40 NGZF=   72
   support grid    NGXF=    80 NGYF=   80 NGZF=  144
   ions per type =               2   2
   NGX,Y,Z   is equivalent  to a cutoff of  10.89, 10.89, 11.14 a.u.
   NGXF,Y,Z  is equivalent  to a cutoff of  21.78, 21.78, 22.28 a.u.

 SYSTEM =  pddmc                                   
 POSCAR =  Pd O                                    

 Startparameter for this run:
   NWRITE =      2    write-flag & timer
   PREC   = accura    normal or accurate (medium, high low for compatibility)
   ISTART =      0    job   : 0-new  1-cont  2-samecut
   ICHARG =      2    charge: 1-file 2-atom 10-const
   ISPIN  =      2    spin polarized calculation?
   LNONCOLLINEAR =      F non collinear calculations
   LSORBIT =      F    spin-orbit coupling
   INIWAV =      1    electr: 0-lowe 1-rand  2-diag
   LASPH  =      T    aspherical Exc in radial PAW
 Electronic Relaxation 1
   ENCUT  =  400.0 eV  29.40 Ry    5.42 a.u.   4.98  4.98  8.76*2*pi/ulx,y,z
   ENINI  =  400.0     initial cutoff
   ENAUG  =  605.4 eV  augmentation charge cutoff
   NELM   =    200;   NELMIN=  5; NELMDL= -5     # of ELM steps 
   EDIFF  = 0.1E-05   stopping-criterion for ELM
   LREAL  =      F    real-space projection
   NLSPLINE    = F    spline interpolate recip. space projectors
   LCOMPAT=      F    compatible to vasp.4.4
   GGA_COMPAT  = T    GGA compatible to vasp.4.4-vasp.4.6
   LMAXPAW     = -100 max onsite density
   LMAXMIX     =    2 max onsite mixed and CHGCAR
   VOSKOWN=      0    Vosko Wilk Nusair interpolation
   ROPT   =    0.00000   0.00000
 Ionic relaxation
   EDIFFG = -.1E-01   stopping-criterion for IOM
   NSW    =      0    number of steps for IOM
   NBLOCK =      1;   KBLOCK =      1    inner block; outer block 
   IBRION =     -1    ionic relax: 0-MD 1-quasi-New 2-CG
   NFREE  =      0    steps in history (QN), initial steepest desc. (CG)
   ISIF   =      0    stress and relaxation
   IWAVPR =     10    prediction:  0-non 1-charg 2-wave 3-comb
   ISYM   =      2    0-nonsym 1-usesym 2-fastsym
   LCORR  =      T    Harris-Foulkes like correction to forces

   POTIM  = 0.5000    time-step for ionic-motion
   TEIN   =    0.0    initial temperature
   TEBEG  =    0.0;   TEEND  =   0.0 temperature during run
   SMASS  =  -3.00    Nose mass-parameter (am)
   estimated Nose-frequenzy (Omega)   =  0.10E-29 period in steps = 0.13E+47 mass=  -0.213E-27a.u.
   SCALEE = 1.0000    scale energy and forces
   NPACO  =    256;   APACO  = 10.0  distance and # of slots for P.C.
   PSTRESS=    0.0 pullay stress

  Mass of Ions in am
   POMASS = 106.42 16.00
  Ionic Valenz
   ZVAL   =  16.00  6.00
  Atomic Wigner-Seitz radii
   RWIGS  =  -1.00 -1.00
  virtual crystal weights 
   VCA    =   1.00  1.00
   NELECT =      44.0000    total number of electrons
   NUPDOWN=      -1.0000    fix difference up-down

 DOS related values:
   EMIN   =  10.00;   EMAX   =-10.00  energy-range for DOS
   EFERMI =   0.00;   METHOD = LEGACY      
   ISMEAR =     0;   SIGMA  =   0.05  broadening in eV -4-tet -1-fermi 0-gaus

 Electronic relaxation 2 (details)
   IALGO  =     38    algorithm
   LDIAG  =      T    sub-space diagonalisation (order eigenvalues)
   LSUBROT=      F    optimize rotation matrix (better conditioning)
   TURBO    =      0    0=normal 1=particle mesh
   IRESTART =      0    0=no restart 2=restart with 2 vectors
   NREBOOT  =      0    no. of reboots
   NMIN     =      0    reboot dimension
   EREF     =   0.00    reference energy to select bands
   IMIX   =      4    mixing-type and parameters
     AMIX     =   0.40;   BMIX     =  1.00
     AMIX_MAG =   1.60;   BMIX_MAG =  1.00
     AMIN     =   0.10
     WC   =   100.;   INIMIX=   1;  MIXPRE=   1;  MAXMIX= -45

 Intra band minimization:
   WEIMIN = 0.0000     energy-eigenvalue tresh-hold
   EBREAK =  0.89E-08  absolut break condition
   DEPER  =   0.30     relativ break condition  

   TIME   =   0.40     timestep for ELM

  volume/ion in A,a.u.               =      12.52        84.50
  Fermi-wavevector in a.u.,A,eV,Ry     =   1.567925  2.962948 33.448407  2.458389
  Thomas-Fermi vector in A             =   2.670032
 
 Write flags
   LWAVE        =      F    write WAVECAR
   LDOWNSAMPLE  =      F    k-point downsampling of WAVECAR
   LCHARG       =      F    write CHGCAR
   LVTOT        =      F    write LOCPOT, total local potential
   LVHAR        =      F    write LOCPOT, Hartree potential only
   WRT_POTENTIAL= false  ! write potential to hdf5 file
   LELF         =      F    write electronic localiz. function (ELF)
   LORBIT       =     11    0 simple, 1 ext, 2 COOP (PROOUT), +10 PAW based schemes


 Dipole corrections
   LMONO      =      F    monopole corrections only (constant potential shift)
   LDIPOL     =      F    correct potential (dipole corrections)
   IDIPOL     =      0    1-x, 2-y, 3-z, 4-all directions 
   EPSILON    =  1.0000000 bulk dielectric constant
   LVACPOTAV  =      F  vacuum potentials using an averaging scheme for the charge density
   VACPOTFLAT =  0.1000000 required flatness to determine vacuum potential
 Exchange correlation treatment:
   GGA     = PE    functional components
   XC_C    = 1    coefficients multiplying the functional components
   LIBXC   =     F    Libxc                    
   VOSKOWN =     0    Vosko Wilk Nusair interpolation
   LHFCALC =     F    Hartree Fock is set to
   LHFONE  =     F    Hartree Fock one center treatment
   AEXX    =    0.0000 exact exchange contribution

 Parameters of functionals:
   PE:
     No parameter
 
 Van der Waals corrections
   IVDW    =    12    specifies the selected vdW correction

 Linear response parameters
   LEPSILON=     F    determine dielectric tensor
   LRPA    =     F    only Hartree local field effects (RPA)
   LNABLA  =     F    use nabla operator in PAW spheres
   LVEL    =     F    velocity operator in full k-point grid
   CSHIFT  =0.1000    complex shift for real part using Kramers Kronig
   OMEGAMAX=  -1.0    maximum frequency
   DEG_THRESHOLD= 0.2000000E-02 threshold for treating states as degnerate
   RTIME   =   -0.100 relaxation time in fs
  (WPLASMAI=    0.000 imaginary part of plasma frequency in eV, 0.658/RTIME)
   DFIELD  = 0.0000000 0.0000000 0.0000000 field for delta impulse in time
 
  Optional k-point grid parameters
   LKPOINTS_OPT  =     F    use optional k-point grid
   KPOINTS_OPT_MODE=     1    mode for optional k-point grid
 
 Orbital magnetization related:
   ORBITALMAG=     F  switch on orbital magnetization
   LCHIMAG   =     F  perturbation theory with respect to B field
   DQ        =  0.001000  dq finite difference perturbation B field
   LLRAUG    =     F  two centre corrections for induced B field
   LBONE     =     F  B-component reconstruction in AE one-centre
   LVGVCALC  =     T  calculate vGv susceptibility
   LVGVAPPL  =     F  apply vGv susceptibility instead of pGv for G=0

 Random number generation:
   RANDOM_GENERATOR = DEFAULT
   PCG_SEED         = not used


--------------------------------------------------------------------------------------------------------


 Static calculation
 charge density and potential will be updated during run
 spin polarized calculation
 Variant of blocked Davidson
 Davidson routine will perform the subspace rotation
 perform sub-space diagonalisation
    after iterative eigenvector-optimisation
 modified Broyden-mixing scheme, WC =      100.0
 initial mixing is a Kerker type mixing with AMIX =  0.4000 and BMIX =      1.0000
 Hartree-type preconditioning will be used
 using additional bands             6
 reciprocal scheme for non local part
 use partial core corrections
 calculate Harris-corrections to forces 
   (improved forces if not selfconsistent)
 use gradient corrections 
 use of overlap-Matrix (Vanderbilt PP)
 Gauss-broadening in eV      SIGMA  =   0.05


--------------------------------------------------------------------------------------------------------


  energy-cutoff  :      400.00
  volume of cell :       50.08
      direct lattice vectors                 reciprocal lattice vectors
     3.053604110  0.000000000  0.000000000     0.327481875 -0.000000000  0.000000000
     0.000000000  3.053604110  0.000000000     0.000000000  0.327481875  0.000000000
     0.000000000  0.000000000  5.371256790    -0.000000000 -0.000000000  0.186176167

  length of vectors
     3.053604110  3.053604110  5.371256790     0.327481875  0.327481875  0.186176167


 
 k-points in units of 2pi/SCALE and weight: Automatic mesh                          
   0.00000000  0.00000000  0.00000000       0.003
   0.04093523  0.00000000  0.00000000       0.010
   0.08187047  0.00000000  0.00000000       0.010
   0.12280570  0.00000000  0.00000000       0.010
   0.16374094  0.00000000  0.00000000       0.005
   0.04093523  0.04093523  0.00000000       0.010
   0.08187047  0.04093523  0.00000000       0.021
   0.12280570  0.04093523  0.00000000       0.021
   0.16374094  0.04093523  0.00000000       0.010
   0.08187047  0.08187047  0.00000000       0.010
   0.12280570  0.08187047  0.00000000       0.021
   0.16374094  0.08187047  0.00000000       0.010
   0.12280570  0.12280570  0.00000000       0.010
   0.16374094  0.12280570  0.00000000       0.010
   0.16374094  0.16374094  0.00000000       0.003
   0.00000000  0.00000000  0.03102936       0.005
   0.04093523  0.00000000  0.03102936       0.021
   0.08187047  0.00000000  0.03102936       0.021
   0.12280570  0.00000000  0.03102936       0.021
   0.16374094  0.00000000  0.03102936       0.010
   0.04093523  0.04093523  0.03102936       0.021
   0.08187047  0.04093523  0.03102936       0.042
   0.12280570  0.04093523  0.03102936       0.042
   0.16374094  0.04093523  0.03102936       0.021
   0.08187047  0.08187047  0.03102936       0.021
   0.12280570  0.08187047  0.03102936       0.042
   0.16374094  0.08187047  0.03102936       0.021
   0.12280570  0.12280570  0.03102936       0.021
   0.16374094  0.12280570  0.03102936       0.021
   0.16374094  0.16374094  0.03102936       0.005
   0.00000000  0.00000000  0.06205872       0.005
   0.04093523  0.00000000  0.06205872       0.021
   0.08187047  0.00000000  0.06205872       0.021
   0.12280570  0.00000000  0.06205872       0.021
   0.16374094  0.00000000  0.06205872       0.010
   0.04093523  0.04093523  0.06205872       0.021
   0.08187047  0.04093523  0.06205872       0.042
   0.12280570  0.04093523  0.06205872       0.042
   0.16374094  0.04093523  0.06205872       0.021
   0.08187047  0.08187047  0.06205872       0.021
   0.12280570  0.08187047  0.06205872       0.042
   0.16374094  0.08187047  0.06205872       0.021
   0.12280570  0.12280570  0.06205872       0.021
   0.16374094  0.12280570  0.06205872       0.021
   0.16374094  0.16374094  0.06205872       0.005
   0.00000000  0.00000000  0.09308808       0.003
   0.04093523  0.00000000  0.09308808       0.010
   0.08187047  0.00000000  0.09308808       0.010
   0.12280570  0.00000000  0.09308808       0.010
   0.16374094  0.00000000  0.09308808       0.005
   0.04093523  0.04093523  0.09308808       0.010
   0.08187047  0.04093523  0.09308808       0.021
   0.12280570  0.04093523  0.09308808       0.021
   0.16374094  0.04093523  0.09308808       0.010
   0.08187047  0.08187047  0.09308808       0.010
   0.12280570  0.08187047  0.09308808       0.021
   0.16374094  0.08187047  0.09308808       0.010
   0.12280570  0.12280570  0.09308808       0.010
   0.16374094  0.12280570  0.09308808       0.010
   0.16374094  0.16374094  0.09308808       0.003
 
 k-points in reciprocal lattice and weights: Automatic mesh                          
   0.00000000  0.00000000  0.00000000       0.003
   0.12500000  0.00000000  0.00000000       0.010
   0.25000000  0.00000000  0.00000000       0.010
   0.37500000  0.00000000  0.00000000       0.010
   0.50000000  0.00000000  0.00000000       0.005
   0.12500000  0.12500000  0.00000000       0.010
   0.25000000  0.12500000  0.00000000       0.021
   0.37500000  0.12500000  0.00000000       0.021
   0.50000000  0.12500000  0.00000000       0.010
   0.25000000  0.25000000  0.00000000       0.010
   0.37500000  0.25000000  0.00000000       0.021
   0.50000000  0.25000000  0.00000000       0.010
   0.37500000  0.37500000  0.00000000       0.010
   0.50000000  0.37500000  0.00000000       0.010
   0.50000000  0.50000000  0.00000000       0.003
   0.00000000  0.00000000  0.16666667       0.005
   0.12500000  0.00000000  0.16666667       0.021
   0.25000000  0.00000000  0.16666667       0.021
   0.37500000  0.00000000  0.16666667       0.021
   0.50000000  0.00000000  0.16666667       0.010
   0.12500000  0.12500000  0.16666667       0.021
   0.25000000  0.12500000  0.16666667       0.042
   0.37500000  0.12500000  0.16666667       0.042
   0.50000000  0.12500000  0.16666667       0.021
   0.25000000  0.25000000  0.16666667       0.021
   0.37500000  0.25000000  0.16666667       0.042
   0.50000000  0.25000000  0.16666667       0.021
   0.37500000  0.37500000  0.16666667       0.021
   0.50000000  0.37500000  0.16666667       0.021
   0.50000000  0.50000000  0.16666667       0.005
   0.00000000  0.00000000  0.33333333       0.005
   0.12500000  0.00000000  0.33333333       0.021
   0.25000000  0.00000000  0.33333333       0.021
   0.37500000  0.00000000  0.33333333       0.021
   0.50000000  0.00000000  0.33333333       0.010
   0.12500000  0.12500000  0.33333333       0.021
   0.25000000  0.12500000  0.33333333       0.042
   0.37500000  0.12500000  0.33333333       0.042
   0.50000000  0.12500000  0.33333333       0.021
   0.25000000  0.25000000  0.33333333       0.021
   0.37500000  0.25000000  0.33333333       0.042
   0.50000000  0.25000000  0.33333333       0.021
   0.37500000  0.37500000  0.33333333       0.021
   0.50000000  0.37500000  0.33333333       0.021
   0.50000000  0.50000000  0.33333333       0.005
   0.00000000  0.00000000  0.50000000       0.003
   0.12500000  0.00000000  0.50000000       0.010
   0.25000000  0.00000000  0.50000000       0.010
   0.37500000  0.00000000  0.50000000       0.010
   0.50000000  0.00000000  0.50000000       0.005
   0.12500000  0.12500000  0.50000000       0.010
   0.25000000  0.12500000  0.50000000       0.021
   0.37500000  0.12500000  0.50000000       0.021
   0.50000000  0.12500000  0.50000000       0.010
   0.25000000  0.25000000  0.50000000       0.010
   0.37500000  0.25000000  0.50000000       0.021
   0.50000000  0.25000000  0.50000000       0.010
   0.37500000  0.37500000  0.50000000       0.010
   0.50000000  0.37500000  0.50000000       0.010
   0.50000000  0.50000000  0.50000000       0.003
 
 position of ions in fractional coordinates (direct lattice) 
   0.50000000  0.00000000  0.50000000
   0.00000000  0.50000000  0.00000000
   0.00000000  0.00000000  0.75000000
   0.00000000  0.00000000  0.25000000
 
 position of ions in cartesian coordinates  (Angst):
   1.52680206  0.00000000  2.68562840
   0.00000000  1.52680206  0.00000000
   0.00000000  0.00000000  4.02844259
   0.00000000  0.00000000  1.34281420
 


--------------------------------------------------------------------------------------------------------


 k-point     1 :   0.0000 0.0000 0.0000  plane waves:     869
 k-point     2 :   0.1250 0.0000 0.0000  plane waves:     888
 k-point     3 :   0.2500 0.0000 0.0000  plane waves:     906
 k-point     4 :   0.3750 0.0000 0.0000  plane waves:     906
 k-point     5 :   0.5000 0.0000 0.0000  plane waves:     910
 k-point     6 :   0.1250 0.1250 0.0000  plane waves:     893
 k-point     7 :   0.2500 0.1250 0.0000  plane waves:     908
 k-point     8 :   0.3750 0.1250 0.0000  plane waves:     912
 k-point     9 :   0.5000 0.1250 0.0000  plane waves:     916
 k-point    10 :   0.2500 0.2500 0.0000  plane waves:     917
 k-point    11 :   0.3750 0.2500 0.0000  plane waves:     913
 k-point    12 :   0.5000 0.2500 0.0000  plane waves:     914
 k-point    13 :   0.3750 0.3750 0.0000  plane waves:     921
 k-point    14 :   0.5000 0.3750 0.0000  plane waves:     918
 k-point    15 :   0.5000 0.5000 0.0000  plane waves:     920
 k-point    16 :   0.0000 0.0000 0.1667  plane waves:     877
 k-point    17 :   0.1250 0.0000 0.1667  plane waves:     894
 k-point    18 :   0.2500 0.0000 0.1667  plane waves:     908
 k-point    19 :   0.3750 0.0000 0.1667  plane waves:     913
 k-point    20 :   0.5000 0.0000 0.1667  plane waves:     910
 k-point    21 :   0.1250 0.1250 0.1667  plane waves:     896
 k-point    22 :   0.2500 0.1250 0.1667  plane waves:     901
 k-point    23 :   0.3750 0.1250 0.1667  plane waves:     913
 k-point    24 :   0.5000 0.1250 0.1667  plane waves:     914
 k-point    25 :   0.2500 0.2500 0.1667  plane waves:     917
 k-point    26 :   0.3750 0.2500 0.1667  plane waves:     915
 k-point    27 :   0.5000 0.2500 0.1667  plane waves:     906
 k-point    28 :   0.3750 0.3750 0.1667  plane waves:     921
 k-point    29 :   0.5000 0.3750 0.1667  plane waves:     922
 k-point    30 :   0.5000 0.5000 0.1667  plane waves:     920
 k-point    31 :   0.0000 0.0000 0.3333  plane waves:     886
 k-point    32 :   0.1250 0.0000 0.3333  plane waves:     893
 k-point    33 :   0.2500 0.0000 0.3333  plane waves:     903
 k-point    34 :   0.3750 0.0000 0.3333  plane waves:     909
 k-point    35 :   0.5000 0.0000 0.3333  plane waves:     908
 k-point    36 :   0.1250 0.1250 0.3333  plane waves:     898
 k-point    37 :   0.2500 0.1250 0.3333  plane waves:     912
 k-point    38 :   0.3750 0.1250 0.3333  plane waves:     917
 k-point    39 :   0.5000 0.1250 0.3333  plane waves:     910
 k-point    40 :   0.2500 0.2500 0.3333  plane waves:     906
 k-point    41 :   0.3750 0.2500 0.3333  plane waves:     912
 k-point    42 :   0.5000 0.2500 0.3333  plane waves:     918
 k-point    43 :   0.3750 0.3750 0.3333  plane waves:     913
 k-point    44 :   0.5000 0.3750 0.3333  plane waves:     912
 k-point    45 :   0.5000 0.5000 0.3333  plane waves:     904
 k-point    46 :   0.0000 0.0000 0.5000  plane waves:     890
 k-point    47 :   0.1250 0.0000 0.5000  plane waves:     900
 k-point    48 :   0.2500 0.0000 0.5000  plane waves:     904
 k-point    49 :   0.3750 0.0000 0.5000  plane waves:     908
 k-point    50 :   0.5000 0.0000 0.5000  plane waves:     908
 k-point    51 :   0.1250 0.1250 0.5000  plane waves:     900
 k-point    52 :   0.2500 0.1250 0.5000  plane waves:     916
 k-point    53 :   0.3750 0.1250 0.5000  plane waves:     916
 k-point    54 :   0.5000 0.1250 0.5000  plane waves:     912
 k-point    55 :   0.2500 0.2500 0.5000  plane waves:     910
 k-point    56 :   0.3750 0.2500 0.5000  plane waves:     916
 k-point    57 :   0.5000 0.2500 0.5000  plane waves:     908
 k-point    58 :   0.3750 0.3750 0.5000  plane waves:     900
 k-point    59 :   0.5000 0.3750 0.5000  plane waves:     912
 k-point    60 :   0.5000 0.5000 0.5000  plane waves:     928

 maximum and minimum number of plane-waves per node :       928      869

 maximum number of plane-waves:       928
 maximum index in each direction: 
   IXMAX=    4   IYMAX=    4   IZMAX=    8
   IXMIN=   -5   IYMIN=   -5   IZMIN=   -9


 serial   3D FFT for wavefunctions
 parallel 3D FFT for charge:
    minimum data exchange during FFTs selected (reduces bandwidth)


 total amount of memory used by VASP MPI-rank0    67223. kBytes
=======================================================================

   base      :      30000. kBytes
   nonl-proj :      16095. kBytes
   fftplans  :       4313. kBytes
   grid      :       3520. kBytes
   one-center:        124. kBytes
   wavefun   :      13171. kBytes
 
     INWAV:  cpu time      0.0000: real time      0.0001
 Broyden mixing: mesh for mixing (old mesh)
   NGX =  9   NGY =  9   NGZ = 17
  (NGX  = 40   NGY  = 40   NGZ  = 72)
  gives a total of   1377 points

 initial charge density was supplied:
 charge density of overlapping atoms calculated
 number of electron      44.0000000 magnetization       4.0000000
 keeping initial charge density in first step


--------------------------------------------------------------------------------------------------------


 Maximum index for augmentation-charges         22263 (set IRDMAX)


--------------------------------------------------------------------------------------------------------


 First call to EWALD:  gamma=   0.481
 Maximum number of real-space cells 3x 3x 2
 Maximum number of reciprocal cells 2x 2x 4

    FEWALD:  cpu time      0.0004: real time      0.0004


--------------------------------------- Ionic step        1  -------------------------------------------




--------------------------------------- Iteration      1(   1)  ---------------------------------------


    POTLOK:  cpu time      0.0222: real time      0.0222
    SETDIJ:  cpu time      0.4027: real time      0.4027
     EDDAV:  cpu time      1.5046: real time      1.7674
       DOS:  cpu time      0.0006: real time      0.0006
    --------------------------------------------
      LOOP:  cpu time      1.9300: real time      2.1929

 eigenvalue-minimisations  :  6932
 total energy-change (2. order) : 0.4131470E+03  (-0.2435862E+04)
 number of electron      44.0000000 magnetization       4.0000000
 augmentation part       44.0000000 magnetization       4.0000000

 Free energy of the ion-electron system (eV)
  ---------------------------------------------------
  alpha Z        PSCENC =       264.60919239
  Ewald energy   TEWEN  =     -4637.17866551
  -Hartree energ DENC   =     -1556.19354633
  -exchange      EXHF   =         0.00000000
  -V(xc)+E(xc)   XCENC  =       221.00441188
  PAW double counting   =      5208.65407777    -5154.59282805
  entropy T*S    EENTRO =        -0.00091294
  eigenvalues    EBANDS =       -40.74890377
  atomic energy  EATOM  =      6107.59421978
  Solvation  Ediel_sol  =         0.00000000
  ---------------------------------------------------
  free energy    TOTEN  =       413.14704524 eV

  energy without entropy =      413.14795818  energy(sigma->0) =      413.14750171


--------------------------------------------------------------------------------------------------------




--------------------------------------- Iteration      1(   2)  ---------------------------------------


     EDDAV:  cpu time      1.4572: real time      1.4582
       DOS:  cpu time      0.0005: real time      0.0005
    --------------------------------------------
      LOOP:  cpu time      1.4577: real time      1.4587

 eigenvalue-minimisations  :  7400
 total energy-change (2. order) :-0.4175095E+03  (-0.4044053E+03)
 number of electron      44.0000000 magnetization       4.0000000
 augmentation part       44.0000000 magnetization       4.0000000

 Free energy of the ion-electron system (eV)
  ---------------------------------------------------
  alpha Z        PSCENC =       264.60919239
  Ewald energy   TEWEN  =     -4637.17866551
  -Hartree energ DENC   =     -1556.19354633
  -exchange      EXHF   =         0.00000000
  -V(xc)+E(xc)   XCENC  =       221.00441188
  PAW double counting   =      5208.65407777    -5154.59282805
  entropy T*S    EENTRO =        -0.00179618
  eigenvalues    EBANDS =      -458.25754421
  atomic energy  EATOM  =      6107.59421978
  Solvation  Ediel_sol  =         0.00000000
  ---------------------------------------------------
  free energy    TOTEN  =        -4.36247844 eV

  energy without entropy =       -4.36068226  energy(sigma->0) =       -4.36158035


--------------------------------------------------------------------------------------------------------




--------------------------------------- Iteration      1(   3)  ---------------------------------------


     EDDAV:  cpu time      1.4686: real time      1.4688
       DOS:  cpu time      0.0005: real time      0.0005
    --------------------------------------------
      LOOP:  cpu time      1.4691: real time      1.4693

 eigenvalue-minimisations  :  7452
 total energy-change (2. order) :-0.1975688E+02  (-0.1953061E+02)
 number of electron      44.0000000 magnetization       4.0000000
 augmentation part       44.0000000 magnetization       4.0000000

 Free energy of the ion-electron system (eV)
  ---------------------------------------------------
  alpha Z        PSCENC =       264.60919239
  Ewald energy   TEWEN  =     -4637.17866551
  -Hartree energ DENC   =     -1556.19354633
  -exchange      EXHF   =         0.00000000
  -V(xc)+E(xc)   XCENC  =       221.00441188
  PAW double counting   =      5208.65407777    -5154.59282805
  entropy T*S    EENTRO =        -0.00209387
  eigenvalues    EBANDS =      -478.01412984
  atomic energy  EATOM  =      6107.59421978
  Solvation  Ediel_sol  =         0.00000000
  ---------------------------------------------------
  free energy    TOTEN  =       -24.11936176 eV

  energy without entropy =      -24.11726789  energy(sigma->0) =      -24.11831482


--------------------------------------------------------------------------------------------------------




--------------------------------------- Iteration      1(   4)  ---------------------------------------


     EDDAV:  cpu time      1.4335: real time      1.4338
       DOS:  cpu time      0.0005: real time      0.0005
    --------------------------------------------
      LOOP:  cpu time      1.4340: real time      1.4343

 eigenvalue-minimisations  :  7224
 total energy-change (2. order) :-0.2140038E+00  (-0.2138756E+00)
 number of electron      44.0000000 magnetization       4.0000000
 augmentation part       44.0000000 magnetization       4.0000000

 Free energy of the ion-electron system (eV)
  ---------------------------------------------------
  alpha Z        PSCENC =       264.60919239
  Ewald energy   TEWEN  =     -4637.17866551
  -Hartree energ DENC   =     -1556.19354633
  -exchange      EXHF   =         0.00000000
  -V(xc)+E(xc)   XCENC  =       221.00441188
  PAW double counting   =      5208.65407777    -5154.59282805
  entropy T*S    EENTRO =        -0.00211626
  eigenvalues    EBANDS =      -478.22811129
  atomic energy  EATOM  =      6107.59421978
  Solvation  Ediel_sol  =         0.00000000
  ---------------------------------------------------
  free energy    TOTEN  =       -24.33336560 eV

  energy without entropy =      -24.33124934  energy(sigma->0) =      -24.33230747


--------------------------------------------------------------------------------------------------------




--------------------------------------- Iteration      1(   5)  ---------------------------------------


     EDDAV:  cpu time      1.3931: real time      1.3934
       DOS:  cpu time      0.0005: real time      0.0005
    CHARGE:  cpu time      0.1204: real time      0.1204
    MIXING:  cpu time      0.0008: real time      0.0008
    --------------------------------------------
      LOOP:  cpu time      1.5148: real time      1.5152

 eigenvalue-minimisations  :  7464
 total energy-change (2. order) :-0.2301191E-02  (-0.2301070E-02)
 number of electron      44.0000001 magnetization       0.7206962
 augmentation part       16.1857924 magnetization       0.5609980

 Broyden mixing:
  rms(total) = 0.17517E+01    rms(broyden)= 0.17466E+01
  rms(prec ) = 0.26535E+01
  weight for this iteration     100.00

 Free energy of the ion-electron system (eV)
  ---------------------------------------------------
  alpha Z        PSCENC =       264.60919239
  Ewald energy   TEWEN  =     -4637.17866551
  -Hartree energ DENC   =     -1556.19354633
  -exchange      EXHF   =         0.00000000
  -V(xc)+E(xc)   XCENC  =       221.00441188
  PAW double counting   =      5208.65407777    -5154.59282805
  entropy T*S    EENTRO =        -0.00211666
  eigenvalues    EBANDS =      -478.23041207
  atomic energy  EATOM  =      6107.59421978
  Solvation  Ediel_sol  =         0.00000000
  ---------------------------------------------------
  free energy    TOTEN  =       -24.33566679 eV

  energy without entropy =      -24.33355013  energy(sigma->0) =      -24.33460846


--------------------------------------------------------------------------------------------------------




--------------------------------------- Iteration      1(   6)  ---------------------------------------


    POTLOK:  cpu time      0.0221: real time      0.0222
    SETDIJ:  cpu time      0.3906: real time      0.3906
     EDDAV:  cpu time      1.3393: real time      1.3397
       DOS:  cpu time      0.0005: real time      0.0005
    CHARGE:  cpu time      0.1162: real time      0.1162
    MIXING:  cpu time      0.0008: real time      0.0008
    --------------------------------------------
      LOOP:  cpu time      1.8694: real time      1.8700

 eigenvalue-minimisations  :  7028
 total energy-change (2. order) : 0.1620570E+01  (-0.1495035E+01)
 number of electron      44.0000001 magnetization       0.2453873
 augmentation part       16.8237421 magnetization       0.1882351

 Broyden mixing:
  rms(total) = 0.70115E+00    rms(broyden)= 0.70014E+00
  rms(prec ) = 0.11896E+01
  weight for this iteration     100.00

 eigenvalues of (default mixing * dielectric matrix)
  average eigenvalue GAMMA=   0.8380
  0.8380

 Free energy of the ion-electron system (eV)
  ---------------------------------------------------
  alpha Z        PSCENC =       264.60919239
  Ewald energy   TEWEN  =     -4637.17866551
  -Hartree energ DENC   =     -1525.66180426
  -exchange      EXHF   =         0.00000000
  -V(xc)+E(xc)   XCENC  =       220.32018617
  PAW double counting   =      5354.10160714    -5305.84215683
  entropy T*S    EENTRO =        -0.00039175
  eigenvalues    EBANDS =      -500.65728381
  atomic energy  EATOM  =      6107.59421978
  Solvation  Ediel_sol  =         0.00000000
  ---------------------------------------------------
  free energy    TOTEN  =       -22.71509669 eV

  energy without entropy =      -22.71470493  energy(sigma->0) =      -22.71490081


--------------------------------------------------------------------------------------------------------




--------------------------------------- Iteration      1(   7)  ---------------------------------------


    POTLOK:  cpu time      0.0213: real time      0.0214
    SETDIJ:  cpu time      0.3896: real time      0.3897
     EDDAV:  cpu time      1.3458: real time      1.3459
       DOS:  cpu time      0.0005: real time      0.0005
    CHARGE:  cpu time      0.1179: real time      0.1179
    MIXING:  cpu time      0.0007: real time      0.0007
    --------------------------------------------
      LOOP:  cpu time      1.8758: real time      1.8760

 eigenvalue-minimisations  :  7012
 total energy-change (2. order) : 0.5061867E+00  (-0.2443636E+00)
 number of electron      44.0000001 magnetization      -0.0709634
 augmentation part       16.5127406 magnetization      -0.1013612

 Broyden mixing:
  rms(total) = 0.36506E+00    rms(broyden)= 0.36477E+00
  rms(prec ) = 0.44007E+00
  weight for this iteration     100.00

 eigenvalues of (default mixing * dielectric matrix)
  average eigenvalue GAMMA=   0.8985
  1.0991  0.6980

 Free energy of the ion-electron system (eV)
  ---------------------------------------------------
  alpha Z        PSCENC =       264.60919239
  Ewald energy   TEWEN  =     -4637.17866551
  -Hartree energ DENC   =     -1538.95882242
  -exchange      EXHF   =         0.00000000
  -V(xc)+E(xc)   XCENC  =       220.53358022
  PAW double counting   =      5476.13672948    -5427.28141998
  entropy T*S    EENTRO =        -0.00060131
  eigenvalues    EBANDS =      -487.66312264
  atomic energy  EATOM  =      6107.59421978
  Solvation  Ediel_sol  =         0.00000000
  ---------------------------------------------------
  free energy    TOTEN  =       -22.20890998 eV

  energy without entropy =      -22.20830867  energy(sigma->0) =      -22.20860933


--------------------------------------------------------------------------------------------------------




--------------------------------------- Iteration      1(   8)  ---------------------------------------


    POTLOK:  cpu time      0.0214: real time      0.0214
    SETDIJ:  cpu time      0.3902: real time      0.3903
     EDDAV:  cpu time      1.6630: real time      1.6632
       DOS:  cpu time      0.0005: real time      0.0005
    CHARGE:  cpu time      0.1153: real time      0.1153
    MIXING:  cpu time      0.0007: real time      0.0007
    --------------------------------------------
      LOOP:  cpu time      2.1912: real time      2.1914

 eigenvalue-minimisations  :  7100
 total energy-change (2. order) :-0.1909631E-01  (-0.3955911E-01)
 number of electron      44.0000001 magnetization      -0.0546745
 augmentation part       16.5577765 magnetization      -0.0501431

 Broyden mixing:
  rms(total) = 0.14777E+00    rms(broyden)= 0.14771E+00
  rms(prec ) = 0.18907E+00
  weight for this iteration     100.00

 eigenvalues of (default mixing * dielectric matrix)
  average eigenvalue GAMMA=   1.1699
  0.7236  0.9782  1.8079

 Free energy of the ion-electron system (eV)
  ---------------------------------------------------
  alpha Z        PSCENC =       264.60919239
  Ewald energy   TEWEN  =     -4637.17866551
  -Hartree energ DENC   =     -1534.82999906
  -exchange      EXHF   =         0.00000000
  -V(xc)+E(xc)   XCENC  =       220.35680513
  PAW double counting   =      5616.31772416    -5568.60058028
  entropy T*S    EENTRO =        -0.00134823
  eigenvalues    EBANDS =      -490.49535467
  atomic energy  EATOM  =      6107.59421978
  Solvation  Ediel_sol  =         0.00000000
  ---------------------------------------------------
  free energy    TOTEN  =       -22.22800629 eV

  energy without entropy =      -22.22665806  energy(sigma->0) =      -22.22733217


--------------------------------------------------------------------------------------------------------




--------------------------------------- Iteration      1(   9)  ---------------------------------------


    POTLOK:  cpu time      0.0216: real time      0.0217
    SETDIJ:  cpu time      0.3901: real time      0.3901
     EDDAV:  cpu time      1.3577: real time      1.3578
       DOS:  cpu time      0.0005: real time      0.0005
    CHARGE:  cpu time      0.1154: real time      0.1155
    MIXING:  cpu time      0.0007: real time      0.0007
    --------------------------------------------
      LOOP:  cpu time      1.8859: real time      1.8863

 eigenvalue-minimisations  :  7316
 total energy-change (2. order) : 0.2145196E-02  (-0.2286258E-02)
 number of electron      44.0000001 magnetization      -0.0132516
 augmentation part       16.5639447 magnetization      -0.0049268

 Broyden mixing:
  rms(total) = 0.43689E-01    rms(broyden)= 0.43624E-01
  rms(prec ) = 0.51621E-01
  weight for this iteration     100.00

 eigenvalues of (default mixing * dielectric matrix)
  average eigenvalue GAMMA=   1.1544
  2.1948  0.9142  0.7341  0.7746

 Free energy of the ion-electron system (eV)
  ---------------------------------------------------
  alpha Z        PSCENC =       264.60919239
  Ewald energy   TEWEN  =     -4637.17866551
  -Hartree energ DENC   =     -1535.76400591
  -exchange      EXHF   =         0.00000000
  -V(xc)+E(xc)   XCENC  =       220.45097605
  PAW double counting   =      5701.04989436    -5653.82685063
  entropy T*S    EENTRO =        -0.00144654
  eigenvalues    EBANDS =      -489.15917508
  atomic energy  EATOM  =      6107.59421978
  Solvation  Ediel_sol  =         0.00000000
  ---------------------------------------------------
  free energy    TOTEN  =       -22.22586109 eV

  energy without entropy =      -22.22441455  energy(sigma->0) =      -22.22513782


--------------------------------------------------------------------------------------------------------




--------------------------------------- Iteration      1(  10)  ---------------------------------------


    POTLOK:  cpu time      0.0212: real time      0.0213
    SETDIJ:  cpu time      0.3916: real time      0.3916
     EDDAV:  cpu time      1.3508: real time      1.3510
       DOS:  cpu time      0.0005: real time      0.0005
    CHARGE:  cpu time      0.1157: real time      0.1157
    MIXING:  cpu time      0.0007: real time      0.0007
    --------------------------------------------
      LOOP:  cpu time      1.8805: real time      1.8808

 eigenvalue-minimisations  :  7160
 total energy-change (2. order) :-0.1659263E-02  (-0.2607320E-03)
 number of electron      44.0000001 magnetization       0.0041262
 augmentation part       16.5576886 magnetization       0.0053139

 Broyden mixing:
  rms(total) = 0.17527E-01    rms(broyden)= 0.17523E-01
  rms(prec ) = 0.20238E-01
  weight for this iteration     100.00

 eigenvalues of (default mixing * dielectric matrix)
  average eigenvalue GAMMA=   1.1883
  2.4903  1.0289  1.0289  0.6967  0.6967

 Free energy of the ion-electron system (eV)
  ---------------------------------------------------
  alpha Z        PSCENC =       264.60919239
  Ewald energy   TEWEN  =     -4637.17866551
  -Hartree energ DENC   =     -1536.27464258
  -exchange      EXHF   =         0.00000000
  -V(xc)+E(xc)   XCENC  =       220.46918283
  PAW double counting   =      5730.29609087    -5683.10649293
  entropy T*S    EENTRO =        -0.00146661
  eigenvalues    EBANDS =      -488.63493860
  atomic energy  EATOM  =      6107.59421978
  Solvation  Ediel_sol  =         0.00000000
  ---------------------------------------------------
  free energy    TOTEN  =       -22.22752036 eV

  energy without entropy =      -22.22605374  energy(sigma->0) =      -22.22678705


--------------------------------------------------------------------------------------------------------




--------------------------------------- Iteration      1(  11)  ---------------------------------------


    POTLOK:  cpu time      0.0212: real time      0.0213
    SETDIJ:  cpu time      0.3893: real time      0.3893
     EDDAV:  cpu time      1.3631: real time      1.3632
       DOS:  cpu time      0.0005: real time      0.0005
    CHARGE:  cpu time      0.1165: real time      0.1166
    MIXING:  cpu time      0.0009: real time      0.0009
    --------------------------------------------
      LOOP:  cpu time      1.8915: real time      1.8917

 eigenvalue-minimisations  :  7368
 total energy-change (2. order) :-0.1968797E-03  (-0.3506365E-04)
 number of electron      44.0000001 magnetization       0.0027506
 augmentation part       16.5574459 magnetization       0.0028939

 Broyden mixing:
  rms(total) = 0.85034E-02    rms(broyden)= 0.85017E-02
  rms(prec ) = 0.10014E-01
  weight for this iteration     100.00

 eigenvalues of (default mixing * dielectric matrix)
  average eigenvalue GAMMA=   1.1768
  2.4587  1.3567  1.0222  0.7963  0.7963  0.6308

 Free energy of the ion-electron system (eV)
  ---------------------------------------------------
  alpha Z        PSCENC =       264.60919239
  Ewald energy   TEWEN  =     -4637.17866551
  -Hartree energ DENC   =     -1536.41534930
  -exchange      EXHF   =         0.00000000
  -V(xc)+E(xc)   XCENC  =       220.47307383
  PAW double counting   =      5738.90876802    -5691.69381340
  entropy T*S    EENTRO =        -0.00144633
  eigenvalues    EBANDS =      -488.52369673
  atomic energy  EATOM  =      6107.59421978
  Solvation  Ediel_sol  =         0.00000000
  ---------------------------------------------------
  free energy    TOTEN  =       -22.22771724 eV

  energy without entropy =      -22.22627091  energy(sigma->0) =      -22.22699407


--------------------------------------------------------------------------------------------------------




--------------------------------------- Iteration      1(  12)  ---------------------------------------


    POTLOK:  cpu time      0.0214: real time      0.0215
    SETDIJ:  cpu time      0.3918: real time      0.3918
     EDDAV:  cpu time      1.3465: real time      1.3472
       DOS:  cpu time      0.0005: real time      0.0005
    CHARGE:  cpu time      0.1160: real time      0.1160
    MIXING:  cpu time      0.0007: real time      0.0007
    --------------------------------------------
      LOOP:  cpu time      1.8770: real time      1.8778

 eigenvalue-minimisations  :  7196
 total energy-change (2. order) :-0.1071944E-04  (-0.5142616E-05)
 number of electron      44.0000001 magnetization      -0.0002138
 augmentation part       16.5576530 magnetization      -0.0004729

 Broyden mixing:
  rms(total) = 0.20788E-02    rms(broyden)= 0.20757E-02
  rms(prec ) = 0.28807E-02
  weight for this iteration     100.00

 eigenvalues of (default mixing * dielectric matrix)
  average eigenvalue GAMMA=   1.2072
  2.4838  1.7722  1.0183  1.0183  0.7653  0.7653  0.6271

 Free energy of the ion-electron system (eV)
  ---------------------------------------------------
  alpha Z        PSCENC =       264.60919239
  Ewald energy   TEWEN  =     -4637.17866551
  -Hartree energ DENC   =     -1536.51123289
  -exchange      EXHF   =         0.00000000
  -V(xc)+E(xc)   XCENC  =       220.47649322
  PAW double counting   =      5742.42871731    -5695.18534225
  entropy T*S    EENTRO =        -0.00142702
  eigenvalues    EBANDS =      -488.45968299
  atomic energy  EATOM  =      6107.59421978
  Solvation  Ediel_sol  =         0.00000000
  ---------------------------------------------------
  free energy    TOTEN  =       -22.22772795 eV

  energy without entropy =      -22.22630093  energy(sigma->0) =      -22.22701444


--------------------------------------------------------------------------------------------------------




--------------------------------------- Iteration      1(  13)  ---------------------------------------


    POTLOK:  cpu time      0.0210: real time      0.0211
    SETDIJ:  cpu time      0.3889: real time      0.3889
     EDDAV:  cpu time      1.6788: real time      1.6790
       DOS:  cpu time      0.0005: real time      0.0005
    CHARGE:  cpu time      0.1194: real time      0.1194
    MIXING:  cpu time      0.0009: real time      0.0009
    --------------------------------------------
      LOOP:  cpu time      2.2095: real time      2.2097

 eigenvalue-minimisations  :  7152
 total energy-change (2. order) :-0.9980115E-05  (-0.1336162E-05)
 number of electron      44.0000001 magnetization      -0.0001439
 augmentation part       16.5576459 magnetization      -0.0002684

 Broyden mixing:
  rms(total) = 0.84570E-03    rms(broyden)= 0.84480E-03
  rms(prec ) = 0.11622E-02
  weight for this iteration     100.00

 eigenvalues of (default mixing * dielectric matrix)
  average eigenvalue GAMMA=   1.2157
  2.5848  2.0353  1.1087  1.1087  0.7751  0.7751  0.7110  0.6266

 Free energy of the ion-electron system (eV)
  ---------------------------------------------------
  alpha Z        PSCENC =       264.60919239
  Ewald energy   TEWEN  =     -4637.17866551
  -Hartree energ DENC   =     -1536.56476320
  -exchange      EXHF   =         0.00000000
  -V(xc)+E(xc)   XCENC  =       220.47869775
  PAW double counting   =      5743.08691929    -5695.83021436
  entropy T*S    EENTRO =        -0.00142256
  eigenvalues    EBANDS =      -488.42170152
  atomic energy  EATOM  =      6107.59421978
  Solvation  Ediel_sol  =         0.00000000
  ---------------------------------------------------
  free energy    TOTEN  =       -22.22773794 eV

  energy without entropy =      -22.22631538  energy(sigma->0) =      -22.22702666


--------------------------------------------------------------------------------------------------------




--------------------------------------- Iteration      1(  14)  ---------------------------------------


    POTLOK:  cpu time      0.0213: real time      0.0214
    SETDIJ:  cpu time      0.3895: real time      0.3895
     EDDAV:  cpu time      1.1177: real time      1.1178
       DOS:  cpu time      0.0005: real time      0.0005
    CHARGE:  cpu time      0.1170: real time      0.1171
    MIXING:  cpu time      0.0009: real time      0.0009
    --------------------------------------------
      LOOP:  cpu time      1.6469: real time      1.6471

 eigenvalue-minimisations  :  5284
 total energy-change (2. order) :-0.1590553E-05  (-0.1849043E-06)
 number of electron      44.0000001 magnetization       0.0000571
 augmentation part       16.5576285 magnetization       0.0000808

 Broyden mixing:
  rms(total) = 0.32841E-03    rms(broyden)= 0.32825E-03
  rms(prec ) = 0.53238E-03
  weight for this iteration     100.00

 eigenvalues of (default mixing * dielectric matrix)
  average eigenvalue GAMMA=   1.2305
  2.5915  2.0979  1.3141  1.0881  1.0881  0.7871  0.7871  0.6969  0.6235

 Free energy of the ion-electron system (eV)
  ---------------------------------------------------
  alpha Z        PSCENC =       264.60919239
  Ewald energy   TEWEN  =     -4637.17866551
  -Hartree energ DENC   =     -1536.58121281
  -exchange      EXHF   =         0.00000000
  -V(xc)+E(xc)   XCENC  =       220.47934266
  PAW double counting   =      5743.03699531    -5695.77648680
  entropy T*S    EENTRO =        -0.00142297
  eigenvalues    EBANDS =      -488.40970159
  atomic energy  EATOM  =      6107.59421978
  Solvation  Ediel_sol  =         0.00000000
  ---------------------------------------------------
  free energy    TOTEN  =       -22.22773953 eV

  energy without entropy =      -22.22631656  energy(sigma->0) =      -22.22702804


--------------------------------------------------------------------------------------------------------




--------------------------------------- Iteration      1(  15)  ---------------------------------------


    POTLOK:  cpu time      0.0215: real time      0.0215
    SETDIJ:  cpu time      0.3918: real time      0.3919
     EDDAV:  cpu time      0.9910: real time      0.9914
       DOS:  cpu time      0.0005: real time      0.0005
    --------------------------------------------
      LOOP:  cpu time      1.4047: real time      1.4052

 eigenvalue-minimisations  :  4264
 total energy-change (2. order) :-0.2133729E-06  (-0.5461892E-07)
 number of electron      44.0000001 magnetization       0.0000571
 augmentation part       16.5576285 magnetization       0.0000808

 Free energy of the ion-electron system (eV)
  ---------------------------------------------------
  alpha Z        PSCENC =       264.60919239
  Ewald energy   TEWEN  =     -4637.17866551
  -Hartree energ DENC   =     -1536.58742579
  -exchange      EXHF   =         0.00000000
  -V(xc)+E(xc)   XCENC  =       220.47954553
  PAW double counting   =      5742.83934175    -5695.57768340
  entropy T*S    EENTRO =        -0.00142445
  eigenvalues    EBANDS =      -488.40484005
  atomic energy  EATOM  =      6107.59421978
  Solvation  Ediel_sol  =         0.00000000
  ---------------------------------------------------
  free energy    TOTEN  =       -22.22773974 eV

  energy without entropy =      -22.22631529  energy(sigma->0) =      -22.22702752


--------------------------------------------------------------------------------------------------------




 average (electrostatic) potential at core
  the test charge radii are     1.0504  0.7215
  (the norm of the test charge is              1.0000)
       1 -77.8252       2 -77.8252       3 -70.0893       4 -70.0893
 
 
 
 E-fermi :   6.9015     XC(G=0): -11.8667     alpha+bet :-12.7273

 val. band max:        6.8971031354   @ k =   0.5000   0.2500   0.0000
 cond. band min:       6.9400418014   @ k =   0.5000   0.5000   0.3333
 fundamental gap:      0.0429386660
 Fermi energy:         6.9014590279

 spin component 1

 k-point     1 :       0.0000    0.0000    0.0000
  band No.  band energies     occupation 
      1     -43.9604      1.00000
      2     -43.9604      1.00000
      3     -43.9536      1.00000
      4     -43.9047      1.00000
      5     -43.1248      1.00000
      6     -43.1248      1.00000
      7     -13.4069      1.00000
      8     -12.1838      1.00000
      9      -1.9431      1.00000
     10      -0.0018      1.00000
     11      -0.0018      1.00000
     12       2.6115      1.00000
     13       2.8133      1.00000
     14       2.8133      1.00000
     15       3.1528      1.00000
     16       3.3371      1.00000
     17       3.6095      1.00000
     18       4.9134      1.00000
     19       4.9134      1.00000
     20       4.9692      1.00000
     21       5.1860      1.00000
     22       5.8395      1.00000
     23       8.7999      0.00000
     24       8.7999      0.00000
     25       9.0032      0.00000
     26      12.3675      0.00000
     27      15.2396      0.00000
     28      21.4458      0.00000

 k-point     2 :       0.1250    0.0000    0.0000
  band No.  band energies     occupation 
      1     -43.9735      1.00000
      2     -43.9600      1.00000
      3     -43.9501      1.00000
      4     -43.9055      1.00000
      5     -43.1348      1.00000
      6     -43.1243      1.00000
      7     -13.3289      1.00000
      8     -12.2172      1.00000
      9      -1.7793      1.00000
     10       0.0071      1.00000
     11       0.0416      1.00000
     12       1.8651      1.00000
     13       2.6666      1.00000
     14       2.8658      1.00000
     15       3.2321      1.00000
     16       3.7257      1.00000
     17       3.7518      1.00000
     18       4.9063      1.00000
     19       4.9228      1.00000
     20       4.9273      1.00000
     21       5.2671      1.00000
     22       5.8696      1.00000
     23       8.5832      0.00000
     24       8.7351      0.00000
     25       9.3729      0.00000
     26      12.9332      0.00000
     27      14.9175      0.00000
     28      19.5423      0.00000

 k-point     3 :       0.2500    0.0000    0.0000
  band No.  band energies     occupation 
      1     -44.0040      1.00000
      2     -43.9586      1.00000
      3     -43.9421      1.00000
      4     -43.9077      1.00000
      5     -43.1578      1.00000
      6     -43.1225      1.00000
      7     -13.1347      1.00000
      8     -12.2944      1.00000
      9      -1.3631      1.00000
     10       0.1198      1.00000
     11       0.1518      1.00000
     12       0.8079      1.00000
     13       2.3676      1.00000
     14       2.7187      1.00000
     15       3.1188      1.00000
     16       4.0121      1.00000
     17       4.5233      1.00000
     18       4.7226      1.00000
     19       4.8851      1.00000
     20       5.1390      1.00000
     21       5.5152      1.00000
     22       5.9314      1.00000
     23       8.2517      0.00000
     24       8.5855      0.00000
     25      10.2175      0.00000
     26      13.9969      0.00000
     27      14.2733      0.00000
     28      17.1239      0.00000

 k-point     4 :       0.3750    0.0000    0.0000
  band No.  band energies     occupation 
      1     -44.0342      1.00000
      2     -43.9569      1.00000
      3     -43.9314      1.00000
      4     -43.9118      1.00000
      5     -43.1806      1.00000
      6     -43.1205      1.00000
      7     -12.9307      1.00000
      8     -12.3705      1.00000
      9      -0.9118      1.00000
     10      -0.0128      1.00000
     11       0.2694      1.00000
     12       0.4380      1.00000
     13       1.9425      1.00000
     14       2.1121      1.00000
     15       3.4433      1.00000
     16       4.2876      1.00000
     17       4.5174      1.00000
     18       4.8577      1.00000
     19       5.0385      1.00000
     20       5.3977      1.00000
     21       5.7409      1.00000
     22       6.2584      1.00000
     23       8.1034      0.00000
     24       8.4385      0.00000
     25      11.0698      0.00000
     26      12.9884      0.00000
     27      14.9853      0.00000
     28      15.9519      0.00000

 k-point     5 :       0.5000    0.0000    0.0000
  band No.  band energies     occupation 
      1     -44.0467      1.00000
      2     -43.9562      1.00000
      3     -43.9240      1.00000
      4     -43.9164      1.00000
      5     -43.1901      1.00000
      6     -43.1196      1.00000
      7     -12.8424      1.00000
      8     -12.4033      1.00000
      9      -0.6998      1.00000
     10      -0.3337      1.00000
     11       0.3196      1.00000
     12       0.8004      1.00000
     13       1.3909      1.00000
     14       2.0157      1.00000
     15       3.6182      1.00000
     16       4.4040      1.00000
     17       4.4345      1.00000
     18       4.8442      1.00000
     19       5.0896      1.00000
     20       5.4832      1.00000
     21       5.8274      1.00000
     22       6.6130      1.00000
     23       8.0909      0.00000
     24       8.3784      0.00000
     25      11.3299      0.00000
     26      13.0223      0.00000
     27      13.6643      0.00000
     28      17.2932      0.00000

 k-point     6 :       0.1250    0.1250    0.0000
  band No.  band energies     occupation 
      1     -43.9748      1.00000
      2     -43.9708      1.00000
      3     -43.9470      1.00000
      4     -43.9061      1.00000
      5     -43.1349      1.00000
      6     -43.1330      1.00000
      7     -13.2507      1.00000
      8     -12.2487      1.00000
      9      -1.6109      1.00000
     10      -0.0651      1.00000
     11       0.1704      1.00000
     12       1.8089      1.00000
     13       1.8471      1.00000
     14       3.2028      1.00000
     15       3.2858      1.00000
     16       3.8717      1.00000
     17       3.9506      1.00000
     18       4.6891      1.00000
     19       4.9472      1.00000
     20       5.0815      1.00000
     21       5.2473      1.00000
     22       5.9151      1.00000
     23       8.3684      0.00000
     24       8.6878      0.00000
     25       9.7243      0.00000
     26      13.4692      0.00000
     27      14.7007      0.00000
     28      19.5503      0.00000

 k-point     7 :       0.2500    0.1250    0.0000
  band No.  band energies     occupation 
      1     -44.0037      1.00000
      2     -43.9707      1.00000
      3     -43.9395      1.00000
      4     -43.9077      1.00000
      5     -43.1570      1.00000
      6     -43.1318      1.00000
      7     -13.0565      1.00000
      8     -12.3253      1.00000
      9      -1.1819      1.00000
     10      -0.0495      1.00000
     11       0.3771      1.00000
     12       0.7755      1.00000
     13       1.7115      1.00000
     14       2.8196      1.00000
     15       3.5029      1.00000
     16       4.1423      1.00000
     17       4.5263      1.00000
     18       4.6183      1.00000
     19       4.8204      1.00000
     20       5.2198      1.00000
     21       5.4810      1.00000
     22       5.9509      1.00000
     23       7.9809      0.00000
     24       8.6053      0.00000
     25      10.5233      0.00000
     26      14.0141      0.00000
     27      14.7580      0.00000
     28      17.3526      0.00000

 k-point     8 :       0.3750    0.1250    0.0000
  band No.  band energies     occupation 
      1     -44.0337      1.00000
      2     -43.9690      1.00000
      3     -43.9294      1.00000
      4     -43.9115      1.00000
      5     -43.1797      1.00000
      6     -43.1297      1.00000
      7     -12.8531      1.00000
      8     -12.4008      1.00000
      9      -0.7145      1.00000
     10      -0.0359      1.00000
     11       0.0802      1.00000
     12       0.6626      1.00000
     13       1.5746      1.00000
     14       2.1202      1.00000
     15       3.7385      1.00000
     16       4.3591      1.00000
     17       4.5623      1.00000
     18       4.6500      1.00000
[...]
      9      -0.4755      1.00000
     10      -0.4755      1.00000
     11       1.0730      1.00000
     12       1.0730      1.00000
     13       1.2960      1.00000
     14       1.2960      1.00000
     15       4.2557      1.00000
     16       4.2557      1.00000
     17       4.4253      1.00000
     18       4.4253      1.00000
     19       5.3155      1.00000
     20       5.3155      1.00000
     21       5.5923      1.00000
     22       5.5923      1.00000
     23       7.7316      0.00000
     24       7.7316      0.00000
     25      12.4311      0.00000
     26      12.4311      0.00000
     27      18.7031      0.00000
     28      18.7031      0.00000

 k-point    56 :       0.3750    0.2500    0.5000
  band No.  band energies     occupation 
      1     -44.0325      1.00000
      2     -43.9998      1.00000
      3     -43.9172      1.00000
      4     -43.9155      1.00000
      5     -43.1771      1.00000
      6     -43.1524      1.00000
      7     -12.6919      1.00000
      8     -12.4395      1.00000
      9      -0.4101      1.00000
     10      -0.2749      1.00000
     11       0.2877      1.00000
     12       1.0260      1.00000
     13       1.3874      1.00000
     14       1.6845      1.00000
     15       4.0484      1.00000
     16       4.2422      1.00000
     17       4.4646      1.00000
     18       4.5719      1.00000
     19       5.0960      1.00000
     20       5.2727      1.00000
     21       5.7219      1.00000
     22       6.2020      1.00000
     23       7.6760      0.00000
     24       8.0357      0.00000
     25      12.0678      0.00000
     26      12.9436      0.00000
     27      16.9547      0.00000
     28      17.8368      0.00000

 k-point    57 :       0.5000    0.2500    0.5000
  band No.  band energies     occupation 
      1     -44.0449      1.00000
      2     -43.9984      1.00000
      3     -43.9163      1.00000
      4     -43.9139      1.00000
      5     -43.1864      1.00000
      6     -43.1513      1.00000
      7     -12.7138      1.00000
      8     -12.3540      1.00000
      9      -0.2682      1.00000
     10      -0.1898      1.00000
     11      -0.0371      1.00000
     12       0.7620      1.00000
     13       1.5430      1.00000
     14       1.9321      1.00000
     15       3.9280      1.00000
     16       4.1411      1.00000
     17       4.5873      1.00000
     18       4.7350      1.00000
     19       4.8729      1.00000
     20       5.0837      1.00000
     21       5.7832      1.00000
     22       6.5766      1.00000
     23       7.9751      0.00000
     24       8.1371      0.00000
     25      11.6150      0.00000
     26      13.2380      0.00000
     27      16.1946      0.00000
     28      17.3166      0.00000

 k-point    58 :       0.3750    0.3750    0.5000
  band No.  band energies     occupation 
      1     -44.0294      1.00000
      2     -44.0294      1.00000
      3     -43.9134      1.00000
      4     -43.9134      1.00000
      5     -43.1746      1.00000
      6     -43.1746      1.00000
      7     -12.5004      1.00000
      8     -12.5004      1.00000
      9      -0.0992      1.00000
     10      -0.0992      1.00000
     11       0.5972      1.00000
     12       0.5972      1.00000
     13       1.1406      1.00000
     14       1.1406      1.00000
     15       4.0206      1.00000
     16       4.0206      1.00000
     17       4.7413      1.00000
     18       4.7413      1.00000
     19       5.2579      1.00000
     20       5.2579      1.00000
     21       6.3283      1.00000
     22       6.3283      1.00000
     23       7.7578      0.00000
     24       7.7578      0.00000
     25      12.3850      0.00000
     26      12.3850      0.00000
     27      18.3195      0.00000
     28      18.3195      0.00000

 k-point    59 :       0.5000    0.3750    0.5000
  band No.  band energies     occupation 
      1     -44.0420      1.00000
      2     -44.0283      1.00000
      3     -43.9127      1.00000
      4     -43.9120      1.00000
      5     -43.1841      1.00000
      6     -43.1737      1.00000
      7     -12.5271      1.00000
      8     -12.4202      1.00000
      9       0.0099      1.00000
     10       0.2467      1.00000
     11       0.2805      1.00000
     12       0.5662      1.00000
     13       0.7876      1.00000
     14       1.2551      1.00000
     15       3.9220      1.00000
     16       3.9279      1.00000
     17       4.9057      1.00000
     18       4.9322      1.00000
     19       5.0814      1.00000
     20       5.2495      1.00000
     21       6.4074      1.00000
     22       6.7694      0.99991
     23       7.7449      0.00000
     24       7.7622      0.00000
     25      11.9731      0.00000
     26      12.5467      0.00000
     27      17.7537      0.00000
     28      18.2725      0.00000

 k-point    60 :       0.5000    0.5000    0.5000
  band No.  band energies     occupation 
      1     -44.0409      1.00000
      2     -44.0409      1.00000
      3     -43.9115      1.00000
      4     -43.9115      1.00000
      5     -43.1832      1.00000
      6     -43.1832      1.00000
      7     -12.4487      1.00000
      8     -12.4487      1.00000
      9       0.4294      1.00000
     10       0.4294      1.00000
     11       0.4896      1.00000
     12       0.4896      1.00000
     13       0.5575      1.00000
     14       0.5575      1.00000
     15       3.8336      1.00000
     16       3.8336      1.00000
     17       4.9609      1.00000
     18       4.9609      1.00000
     19       5.3263      1.00000
     20       5.3263      1.00000
     21       6.8379      0.96390
     22       6.8379      0.96390
     23       7.6221      0.00000
     24       7.6221      0.00000
     25      12.1457      0.00000
     26      12.1457      0.00000
     27      18.5755      0.00000
     28      18.5765      0.00000


--------------------------------------------------------------------------------------------------------


 soft charge-density along one line, spin component            1
         0         1         2         3         4         5         6         7         8         9
 total charge-density along one line
 
 soft charge-density along one line, spin component            2
         0         1         2         3         4         5         6         7         8         9
 total charge-density along one line
 
 pseudopotential strength for first ion, spin component:            1
-38.790  -0.000  -0.000   9.102   0.000   0.000  -0.000   0.000
 -0.000 -39.202   0.000   0.000   9.336  -0.000  -0.000   0.000
 -0.000   0.000 -39.228   0.000  -0.000   9.354   0.000  -0.000
  9.102   0.000   0.000   7.645  -0.000  -0.000   0.000  -0.000
  0.000   9.336  -0.000  -0.000   7.590   0.000   0.000  -0.000
  0.000  -0.000   9.354  -0.000   0.000   7.589  -0.000   0.000
 -0.000  -0.000   0.000   0.000   0.000  -0.000  -3.750  -0.000
  0.000   0.000  -0.000  -0.000  -0.000   0.000  -0.000  -3.729
 -0.000   0.000   0.000  -0.000  -0.000  -0.000   0.000   0.000
 -0.000  -0.000   0.000   0.000   0.000  -0.000  -0.000  -0.000
  0.000   0.000  -0.000  -0.000  -0.000  -0.000  -0.000   0.000
 -0.000  -0.000   0.000   0.000   0.000  -0.000  -3.561  -0.000
  0.000   0.000  -0.000  -0.000  -0.000   0.000  -0.000  -3.538
 -0.000   0.000   0.000  -0.000  -0.000  -0.000   0.000   0.000
 -0.000  -0.000   0.000   0.000   0.000  -0.000  -0.000  -0.000
  0.000   0.000  -0.000  -0.000  -0.000  -0.000  -0.000   0.000
 -0.000  -0.000   0.000   0.000  -0.000   0.000   0.000   0.000
 -0.000  -0.000   0.000   0.000  -0.000   0.000   0.000   0.000
 pseudopotential strength for first ion, spin component:            2
-38.790  -0.000  -0.000   9.102   0.000   0.000  -0.000   0.000
 -0.000 -39.202   0.000   0.000   9.336  -0.000  -0.000   0.000
 -0.000   0.000 -39.228   0.000  -0.000   9.354   0.000  -0.000
  9.102   0.000   0.000   7.645  -0.000  -0.000   0.000  -0.000
  0.000   9.336  -0.000  -0.000   7.590   0.000  -0.000  -0.000
  0.000  -0.000   9.354  -0.000   0.000   7.589  -0.000  -0.000
 -0.000  -0.000   0.000   0.000  -0.000  -0.000  -3.750  -0.000
  0.000   0.000  -0.000  -0.000  -0.000  -0.000  -0.000  -3.729
 -0.000   0.000   0.000   0.000  -0.000  -0.000   0.000   0.000
 -0.000   0.000   0.000  -0.000  -0.000  -0.000  -0.000  -0.000
 -0.000  -0.000   0.000  -0.000  -0.000  -0.000  -0.000   0.000
 -0.000  -0.000   0.000   0.000  -0.000  -0.000  -3.561  -0.000
  0.000   0.000  -0.000  -0.000  -0.000  -0.000  -0.000  -3.538
 -0.000   0.000   0.000   0.000  -0.000  -0.000   0.000   0.000
 -0.000   0.000   0.000  -0.000  -0.000  -0.000  -0.000  -0.000
 -0.000  -0.000   0.000  -0.000  -0.000  -0.000  -0.000   0.000
 -0.000  -0.000  -0.000   0.000  -0.000   0.000   0.000   0.000
 -0.000  -0.000  -0.000   0.000  -0.000   0.000   0.000   0.000
 total augmentation occupancy for first ion, spin component:            1
  1.998   0.000   0.000  -0.011  -0.000  -0.000   0.000   0.000   0.000   0.000   0.000   0.000   0.000   0.000   0.000   0.000
  0.000   1.998   0.000  -0.000  -0.019  -0.000   0.000   0.000   0.000   0.000   0.000   0.000   0.000   0.000   0.000   0.000
  0.000   0.000   1.998  -0.000  -0.000  -0.020   0.000   0.000   0.000   0.000   0.000   0.000   0.000   0.000   0.000   0.000
 -0.011  -0.000  -0.000   0.045   0.000   0.000   0.000   0.000   0.000   0.000   0.000   0.000   0.000   0.000   0.000   0.000
 -0.000  -0.019  -0.000   0.000   0.134   0.000   0.000   0.000   0.000   0.000   0.000   0.000   0.000   0.000   0.000   0.000
 -0.000  -0.000  -0.020   0.000   0.000   0.159   0.000   0.000   0.000   0.000   0.000   0.000   0.000   0.000   0.000   0.000
  0.000   0.000   0.000   0.000   0.000   0.000   2.218   0.000  -0.000   0.000  -0.000  -0.323  -0.000   0.000  -0.000   0.000
  0.000   0.000   0.000   0.000   0.000   0.000   0.000   2.152   0.000   0.000  -0.000  -0.000  -0.278   0.000  -0.000   0.000
  0.000   0.000   0.000   0.000   0.000   0.000  -0.000   0.000   2.378   0.000   0.169   0.000   0.000  -0.546  -0.000  -0.116
  0.000   0.000   0.000   0.000   0.000   0.000   0.000   0.000   0.000   4.857   0.000  -0.000  -0.000  -0.000  -2.785  -0.000
  0.000   0.000   0.000   0.000   0.000   0.000  -0.000  -0.000   0.169   0.000   3.106   0.000   0.000  -0.111  -0.000  -1.169
  0.000   0.000   0.000   0.000   0.000   0.000  -0.323  -0.000   0.000  -0.000   0.000   0.374   0.000  -0.000   0.000  -0.000
  0.000   0.000   0.000   0.000   0.000   0.000  -0.000  -0.278   0.000  -0.000   0.000   0.000   0.370   0.000   0.000  -0.000
  0.000   0.000   0.000   0.000   0.000   0.000   0.000   0.000  -0.546  -0.000  -0.111  -0.000   0.000   0.670   0.000  -0.017
  0.000   0.000   0.000   0.000   0.000   0.000  -0.000  -0.000  -0.000  -2.785  -0.000   0.000   0.000   0.000   1.857   0.000
  0.000   0.000   0.000   0.000   0.000   0.000   0.000   0.000  -0.116  -0.000  -1.169  -0.000  -0.000  -0.017   0.000   1.088
  0.000   0.000   0.000   0.000   0.000   0.000  -0.000  -0.000   0.070   0.000   0.419   0.000   0.000  -0.272  -0.000  -0.847
  0.000   0.000   0.000   0.000   0.000   0.000  -0.000  -0.000   0.022  -0.000  -0.001  -0.000  -0.000   0.023   0.000   0.090
 total augmentation occupancy for first ion, spin component:            2
 -0.000  -0.000  -0.000  -0.000  -0.000  -0.000   0.000   0.000   0.000   0.000   0.000   0.000   0.000   0.000   0.000   0.000
 -0.000  -0.000  -0.000  -0.000  -0.000  -0.000   0.000   0.000   0.000   0.000   0.000   0.000   0.000   0.000   0.000   0.000
 -0.000  -0.000  -0.000  -0.000  -0.000  -0.000   0.000   0.000   0.000   0.000   0.000   0.000   0.000   0.000   0.000   0.000
 -0.000  -0.000  -0.000  -0.000  -0.000  -0.000   0.000   0.000   0.000   0.000   0.000   0.000   0.000   0.000   0.000   0.000
 -0.000  -0.000  -0.000  -0.000   0.000   0.000   0.000   0.000   0.000   0.000   0.000   0.000   0.000   0.000   0.000   0.000
 -0.000  -0.000  -0.000  -0.000   0.000   0.000   0.000   0.000   0.000   0.000   0.000   0.000   0.000   0.000   0.000   0.000
  0.000   0.000   0.000   0.000   0.000   0.000  -0.000  -0.000   0.000  -0.000  -0.000   0.000   0.000  -0.000   0.000   0.000
  0.000   0.000   0.000   0.000   0.000   0.000  -0.000  -0.000  -0.000  -0.000   0.000   0.000   0.000   0.000   0.000  -0.000
  0.000   0.000   0.000   0.000   0.000   0.000   0.000  -0.000  -0.000   0.000   0.000  -0.000   0.000  -0.000  -0.000   0.000
  0.000   0.000   0.000   0.000   0.000   0.000  -0.000  -0.000   0.000   0.000  -0.000   0.000   0.000  -0.000  -0.000   0.000
  0.000   0.000   0.000   0.000   0.000   0.000  -0.000   0.000   0.000  -0.000  -0.000   0.000  -0.000   0.000   0.000   0.000
  0.000   0.000   0.000   0.000   0.000   0.000   0.000   0.000  -0.000   0.000   0.000   0.000   0.000  -0.000   0.000  -0.000
  0.000   0.000   0.000   0.000   0.000   0.000   0.000   0.000   0.000   0.000  -0.000   0.000   0.000  -0.000   0.000  -0.000
  0.000   0.000   0.000   0.000   0.000   0.000  -0.000   0.000  -0.000  -0.000   0.000  -0.000  -0.000   0.000  -0.000  -0.000
  0.000   0.000   0.000   0.000   0.000   0.000   0.000   0.000  -0.000  -0.000   0.000   0.000   0.000  -0.000   0.000   0.000
  0.000   0.000   0.000   0.000   0.000   0.000   0.000  -0.000   0.000   0.000   0.000  -0.000  -0.000  -0.000   0.000   0.000
  0.000   0.000   0.000   0.000   0.000   0.000  -0.000  -0.000   0.000   0.000   0.000  -0.000  -0.000   0.000   0.000   0.000
  0.000   0.000   0.000   0.000   0.000   0.000   0.000   0.000  -0.000  -0.000  -0.000   0.000   0.000  -0.000  -0.000  -0.000


------------------------ aborting loop because EDIFF is reached ----------------------------------------





 total charge

# of ion       s       p       d       tot
------------------------------------------
    1        0.300   6.191   7.923  14.414
    2        0.300   6.191   7.923  14.414
    3        1.588   3.404   0.000   4.992
    4        1.588   3.404   0.000   4.992
--------------------------------------------------
tot          3.775  19.191  15.846  38.812



 magnetization (x)

# of ion       s       p       d       tot
------------------------------------------
    1       -0.000  -0.000   0.000   0.000
    2       -0.000  -0.000   0.000   0.000
    3        0.000   0.000   0.000   0.000
    4        0.000   0.000   0.000   0.000
--------------------------------------------------
tot          0.000   0.000   0.000   0.000
 
    CHARGE:  cpu time      0.1169: real time      0.1169
    FORLOC:  cpu time      0.0008: real time      0.0008
    FORNL :  cpu time      0.2572: real time      0.2572
    FORCOR:  cpu time      0.4112: real time      0.4117
    FORHAR:  cpu time      0.0025: real time      0.0025
    MIXING:  cpu time      0.0008: real time      0.0008
    OFIELD:  cpu time      0.0000: real time      0.0000

 ---------------------------------------------------------------------------------------------

         DFTD3 V3.0 Rev 1        
 DF pbe       
 parameters
 k1-k3        =   16.0000    1.3333   -4.0000
 Edisp (eV)   -1.24372

 E6    (eV) :    -0.7446
 E8    (eV) :    -0.4991
 % E8        : 40.13
    FORVDW:  cpu time      0.0091: real time      0.0092

 VOLUME and BASIS-vectors are now :
 -----------------------------------------------------------------------------
  energy-cutoff  :      400.00
  volume of cell :       50.08
      direct lattice vectors                 reciprocal lattice vectors
     3.053604110  0.000000000  0.000000000     0.327481875 -0.000000000  0.000000000
     0.000000000  3.053604110  0.000000000     0.000000000  0.327481875  0.000000000
     0.000000000  0.000000000  5.371256790    -0.000000000 -0.000000000  0.186176167

  length of vectors
     3.053604110  3.053604110  5.371256790     0.327481875  0.327481875  0.186176167


 FORCES acting on ions
    electron-ion (+dipol)            ewald-force                    non-local-force                 convergence-correction
 -----------------------------------------------------------------------------------------------
   -.109E-12 -.194E-13 0.438E-11   0.739E-14 -.375E-14 0.568E-13   -.825E-24 0.000E+00 0.000E+00   0.225E-13 0.311E-13 0.149E-13
   -.522E-13 -.102E-12 -.238E-12   0.256E-14 0.123E-13 -.568E-13   -.223E-24 0.000E+00 0.000E+00   0.397E-13 -.110E-15 0.112E-13
   -.315E-13 0.745E-12 -.106E-11   0.312E-15 0.187E-13 0.119E-12   -.145E-16 0.000E+00 -.555E-16   -.113E-12 -.259E-13 -.442E-13
   0.354E-13 -.707E-12 0.129E-11   -.648E-14 -.261E-13 -.119E-12   0.136E-16 0.000E+00 -.278E-15   0.116E-12 0.359E-13 0.553E-13
 -----------------------------------------------------------------------------------------------
   -.157E-12 -.841E-13 0.438E-11   0.379E-14 0.117E-14 0.128E-18   -.905E-18 0.000E+00 -.333E-15   0.657E-13 0.411E-13 0.372E-13
 
 
 POSITION                                       TOTAL-FORCE (eV/Angst)
 -----------------------------------------------------------------------------------
      1.52680      0.00000      2.68563         0.000000      0.000000      0.000000
      0.00000      1.52680      0.00000         0.000000      0.000000      0.000000
      0.00000      0.00000      4.02844        -0.000000     -0.000000     -0.000000
      0.00000      0.00000      1.34281         0.000000      0.000000      0.000000
 -----------------------------------------------------------------------------------
    total drift:                               -0.000000     -0.000000      0.000000


--------------------------------------------------------------------------------------------------------



  FREE ENERGIE OF THE ION-ELECTRON SYSTEM (eV)
  ---------------------------------------------------
  free  energy   TOTEN  =       -23.47146338 eV

  energy  without entropy=      -23.47003893  energy(sigma->0) =      -23.47075116
 


--------------------------------------------------------------------------------------------------------


    POTLOK:  cpu time      0.7127: real time      0.7128


--------------------------------------------------------------------------------------------------------


     LOOP+:  cpu time     28.0537: real time     28.3231
    4ORBIT:  cpu time      0.0000: real time      0.0000



 total charge

# of ion       s       p       d       tot
------------------------------------------
    1        0.300   6.191   7.923  14.414
    2        0.300   6.191   7.923  14.414
    3        1.588   3.404   0.000   4.992
    4        1.588   3.404   0.000   4.992
--------------------------------------------------
tot          3.775  19.191  15.846  38.812



 magnetization (x)

# of ion       s       p       d       tot
------------------------------------------
    1       -0.000  -0.000   0.000   0.000
    2       -0.000  -0.000   0.000   0.000
    3        0.000   0.000   0.000   0.000
    4        0.000   0.000   0.000   0.000
--------------------------------------------------
tot          0.000   0.000   0.000   0.000
 

 total amount of memory used by VASP MPI-rank0    67223. kBytes
=======================================================================

   base      :      30000. kBytes
   nonl-proj :      16095. kBytes
   fftplans  :       4313. kBytes
   grid      :       3520. kBytes
   one-center:        124. kBytes
   wavefun   :      13171. kBytes
 
  
  
 General timing and accounting informations for this job:
 ========================================================
  
                  Total CPU time used (sec):       30.130
                            User time (sec):       29.321
                          System time (sec):        0.809
                         Elapsed time (sec):       30.911
  
                   Maximum memory used (kb):      338184.
                   Average memory used (kb):          N/A
  
                          Minor page faults:       281750
                          Major page faults:            3
                 Voluntary context switches:          204
