       N       E                     dE             d eps       ncg     rms          rms(c)
DAV:   1     0.475309398770E+03    0.47531E+03   -0.27842E+04  6720   0.178E+03
DAV:   2    -0.409094471457E+00   -0.47572E+03   -0.46012E+03  7400   0.507E+02
DAV:   3    -0.240814510159E+02   -0.23672E+02   -0.23385E+02  7432   0.115E+02
DAV:   4    -0.243658878652E+02   -0.28444E+00   -0.28421E+00  7284   0.138E+01
DAV:   5    -0.243688485193E+02   -0.29607E-02   -0.29605E-02  7428   0.144E+00    0.176E+01
DAV:   6    -0.227432527969E+02    0.16256E+01   -0.15567E+01  7044   0.357E+01    0.713E+00
DAV:   7    -0.221875211474E+02    0.55573E+00   -0.25368E+00  7024   0.172E+01    0.367E+00
DAV:   8    -0.222064442677E+02   -0.18923E-01   -0.41114E-01  7100   0.410E+00    0.151E+00
DAV:   9    -0.222019787923E+02    0.44655E-02   -0.24257E-02  7356   0.141E+00    0.443E-01
DAV:  10    -0.222033825397E+02   -0.14037E-02   -0.26059E-03  7136   0.423E-01    0.176E-01
DAV:  11    -0.222035715945E+02   -0.18905E-03   -0.36273E-04  7352   0.129E-01    0.868E-02
DAV:  12    -0.222035828464E+02   -0.11252E-04   -0.51916E-05  7168   0.535E-02    0.209E-02
DAV:  13    -0.222035928741E+02   -0.10028E-04   -0.13404E-05  7192   0.260E-02    0.845E-03
DAV:  14    -0.222035942895E+02   -0.14155E-05   -0.17245E-06  5136   0.104E-02    0.332E-03
DAV:  15    -0.222035945095E+02   -0.21998E-06   -0.55337E-07  4272   0.595E-03
   1 F= -.23447318E+02 E0= -.23446611E+02  d E =-.234473E+02  mag=    -0.0000
       N       E                     dE             d eps       ncg     rms          rms(c)
DAV:   1    -0.224205637690E+02   -0.21697E+00   -0.31422E+00  7076   0.171E+01    0.307E+00
DAV:   2    -0.222404707181E+02    0.18009E+00   -0.67669E-01  6776   0.818E+00    0.993E-01
DAV:   3    -0.222242288650E+02    0.16242E-01   -0.37434E-02  7124   0.189E+00    0.364E-01
DAV:   4    -0.222227572412E+02    0.14716E-02   -0.67650E-03  6892   0.744E-01    0.180E-01
DAV:   5    -0.222226366279E+02    0.12061E-03   -0.18042E-03  7400   0.336E-01    0.672E-02
DAV:   6    -0.222225623905E+02    0.74237E-04   -0.18815E-04  7108   0.116E-01    0.140E-02
DAV:   7    -0.222225654557E+02   -0.30652E-05   -0.21297E-05  7136   0.325E-02    0.381E-03
DAV:   8    -0.222225651617E+02    0.29401E-06   -0.65707E-07  4180   0.719E-03
   2 F= -.23447368E+02 E0= -.23446557E+02  d E =-.499122E-04  mag=    -0.0000
       N       E                     dE             d eps       ncg     rms          rms(c)
DAV:   1    -0.222644360402E+02   -0.41871E-01   -0.77713E-01  7076   0.844E+00    0.155E+00
DAV:   2    -0.222191577975E+02    0.45278E-01   -0.17381E-01  6776   0.402E+00    0.495E-01
DAV:   3    -0.222153554687E+02    0.38023E-02   -0.98914E-03  7012   0.971E-01    0.185E-01
DAV:   4    -0.222150084404E+02    0.34703E-03   -0.15910E-03  6888   0.372E-01    0.930E-02
DAV:   5    -0.222150232795E+02   -0.14839E-04   -0.43340E-04  7392   0.164E-01    0.319E-02
DAV:   6    -0.222150092464E+02    0.14033E-04   -0.36947E-05  7128   0.529E-02    0.748E-03
DAV:   7    -0.222150097535E+02   -0.50715E-06   -0.61575E-06  7012   0.170E-02
   3 F= -.23449204E+02 E0= -.23448444E+02  d E =-.188596E-02  mag=     0.0000
       N       E                     dE             d eps       ncg     rms          rms(c)
DAV:   1    -0.222151825690E+02   -0.17332E-03   -0.21123E-04  7196   0.140E-01    0.260E-02
DAV:   2    -0.222151709651E+02    0.11604E-04   -0.48092E-05  6888   0.670E-02    0.821E-03
DAV:   3    -0.222151691689E+02    0.17961E-05   -0.27685E-06  6720   0.158E-02    0.313E-03
DAV:   4    -0.222151687661E+02    0.40286E-06   -0.41938E-07  3544   0.626E-03    0.155E-03
DAV:   5    -0.222151681850E+02    0.58109E-06   -0.11655E-07  3552   0.287E-03
   4 F= -.23449203E+02 E0= -.23448443E+02  d E =-.188525E-02  mag=    -0.0000
       N       E                     dE             d eps       ncg     rms          rms(c)
DAV:   1    -0.222150969831E+02    0.71783E-04   -0.49130E-05  7136   0.671E-02    0.122E-02
DAV:   2    -0.222150934964E+02    0.34867E-05   -0.10812E-05  6800   0.321E-02    0.393E-03
DAV:   3    -0.222150935759E+02   -0.79570E-07   -0.52525E-07  3528   0.763E-03    0.147E-03
DAV:   4    -0.222150936950E+02   -0.11908E-06   -0.18582E-07  3504   0.353E-03    0.719E-04
DAV:   5    -0.222150939119E+02   -0.21685E-06   -0.31500E-08  3496   0.159E-03
   5 F= -.23449204E+02 E0= -.23448444E+02  d E =-.188573E-02  mag=     0.0000
       N       E                     dE             d eps       ncg     rms          rms(c)
DAV:   1    -0.222150528133E+02    0.40882E-04   -0.15469E-05  6868   0.380E-02    0.688E-03
DAV:   2    -0.222150515358E+02    0.12775E-05   -0.33996E-06  5484   0.180E-02    0.220E-03
DAV:   3    -0.222150516479E+02   -0.11218E-06   -0.17909E-07  3524   0.450E-03    0.825E-04
DAV:   4    -0.222150517164E+02   -0.68459E-07   -0.61952E-08  3488   0.218E-03    0.405E-04
DAV:   5    -0.222150518468E+02   -0.13035E-06   -0.11359E-08  3520   0.975E-04
   6 F= -.23449204E+02 E0= -.23448444E+02  d E =-.188585E-02  mag=    -0.0000
       N       E                     dE             d eps       ncg     rms          rms(c)
DAV:   1    -0.222150310233E+02    0.20693E-04   -0.38384E-06  6284   0.189E-02    0.344E-03
DAV:   2    -0.222150306068E+02    0.41643E-06   -0.82080E-07  3508   0.901E-03    0.109E-03
DAV:   3    -0.222150306841E+02   -0.77313E-07   -0.67652E-08  3464   0.250E-03    0.407E-04
DAV:   4    -0.222150307203E+02   -0.36108E-07   -0.22105E-08  3464   0.123E-03    0.219E-04
DAV:   5    -0.222150307875E+02   -0.67206E-07   -0.50985E-09  3464   0.622E-04
   7 F= -.23449204E+02 E0= -.23448444E+02  d E =-.188589E-02  mag=     0.0000
       N       E                     dE             d eps       ncg     rms          rms(c)
DAV:   1    -0.222154790254E+02   -0.44831E-03   -0.37611E-02  7076   0.152E+00    0.209E-01
DAV:   2    -0.222146609159E+02    0.81811E-03   -0.15696E-03  6928   0.345E-01    0.965E-02
DAV:   3    -0.222144936518E+02    0.16726E-03   -0.28517E-04  7248   0.135E-01    0.399E-02
DAV:   4    -0.222144674373E+02    0.26214E-04   -0.53490E-05  7092   0.716E-02    0.146E-02
DAV:   5    -0.222144682649E+02   -0.82755E-06   -0.14536E-05  7172   0.288E-02    0.505E-03
DAV:   6    -0.222144684445E+02   -0.17964E-06   -0.19734E-06  4620   0.106E-02
   8 F= -.23449363E+02 E0= -.23448593E+02  d E =-.158537E-03  mag=    -0.0000
       N       E                     dE             d eps       ncg     rms          rms(c)
DAV:   1    -0.222154993633E+02   -0.10311E-02   -0.73757E-02  7072   0.212E+00    0.293E-01
DAV:   2    -0.222138968522E+02    0.16025E-02   -0.30895E-03  6924   0.484E-01    0.135E-01
DAV:   3    -0.222135672991E+02    0.32955E-03   -0.55944E-04  7248   0.189E-01    0.561E-02
DAV:   4    -0.222135153541E+02    0.51945E-04   -0.10519E-04  7088   0.101E-01    0.205E-02
DAV:   5    -0.222135159973E+02   -0.64312E-06   -0.28763E-05  7172   0.404E-02    0.710E-03
DAV:   6    -0.222135163303E+02   -0.33303E-06   -0.40836E-06  6740   0.150E-02
   9 F= -.23449425E+02 E0= -.23448642E+02  d E =-.220779E-03  mag=    -0.0000
