 vasp.6.4.3 19Mar24 (build Nov 27 2025 15:18:09) complex                         
 executed on              LinuxNV date 2026.06.04  16:56:12
 running    4 mpi-ranks, with    1 threads/rank, on    1 nodes
 distrk:  each k-point on    4 cores,    1 groups
 distr:  one band on NCORE=   1 cores,    4 groups
 OpenACC runtime initialized ...    0 GPUs detected


--------------------------------------------------------------------------------------------------------


 INCAR:
   SYSTEM = pddmc
   ENCUT = 520
   PREC = Accurate
   LASPH = .TRUE.
   ADDGRID = .TRUE.
   ISPIN = 2
   IVDW = 12
   EDIFF = 1e-06
   NELM = 200
   NELMIN = 5
   ALGO = Normal
   NCORE = 1
   LREAL = .FALSE.
   LWAVE = .FALSE.
   LCHARG = .FALSE.
   LORBIT = 11
   ISYM = 2
   IBRION = 2
   NSW = 200
   ISIF = 3
   ISMEAR = 0
   SIGMA = 0.05
   EDIFFG = -0.01

 POTCAR:    PAW_PBE Pd_pv 28Jan2005               
 POTCAR:    PAW_PBE O 08Apr2002                   
 -----------------------------------------------------------------------------
|                                                                             |
|           W    W    AA    RRRRR   N    N  II  N    N   GGGG   !!!           |
|           W    W   A  A   R    R  NN   N  II  NN   N  G    G  !!!           |
|           W    W  A    A  R    R  N N  N  II  N N  N  G       !!!           |
|           W WW W  AAAAAA  RRRRR   N  N N  II  N  N N  G  GGG   !            |
|           WW  WW  A    A  R   R   N   NN  II  N   NN  G    G                |
|           W    W  A    A  R    R  N    N  II  N    N   GGGG   !!!           |
|                                                                             |
|     You use a magnetic or noncollinear calculation, but did not specify     |
|     the initial magnetic moment with the MAGMOM tag. Note that a            |
|     default of 1 will be used for all atoms. This ferromagnetic setup       |
|     may break the symmetry of the crystal, in particular it may rule        |
|     out finding an antiferromagnetic solution. Thence, we recommend         |
|     setting the initial magnetic moment manually or verifying carefully     |
|     that this magnetic setup is desired.                                    |
|                                                                             |
 -----------------------------------------------------------------------------

 POTCAR:    PAW_PBE Pd_pv 28Jan2005               
   SHA256 =  3ce661545bbde58da9a95410dea32907db2844916708bcd35bbe03ee66324d7f Pd_pv/POTCAR          
   COPYR  = (c) Copyright 28Jan2005 Georg Kresse                                                    
   COPYR  = This file is part of the software VASP. Any use, copying, and all other rights are regul
   COPYR  = If you do not have a valid VASP license, you may not use, copy or distribute this file. 
   VRHFIN =Pd: 4p5s4d                                                                               
   LEXCH  = PE                                                                                      
   EATOM  =  2621.5550 eV,  192.6789 Ry                                                             
                                                                                                    
   TITEL  = PAW_PBE Pd_pv 28Jan2005                                                                 
   LULTRA =        F    use ultrasoft PP ?                                                          
   IUNSCR =        1    unscreen: 0-lin 1-nonlin 2-no                                               
   RPACOR =    2.250    partial core radius                                                         
   POMASS =  106.420; ZVAL   =   16.000    mass and valenz                                          
   RCORE  =    2.400    outmost cutoff radius                                                       
   RWIGS  =    2.300; RWIGS  =    1.217    wigner-seitz radius (au A)                               
   ENMAX  =  250.925; ENMIN  =  188.194 eV                                                          
   ICORE  =        3    local potential                                                             
   LCOR   =        T    correct aug charges                                                         
   LPAW   =        T    paw PP                                                                      
   EAUG   =  473.067                                                                                
   DEXC   =    0.000                                                                                
   RMAX   =    2.449    core radius for proj-oper                                                   
   RAUG   =    1.300    factor for augmentation sphere                                              
   RDEP   =    2.405    radius for radial grids                                                     
   RDEPT  =    1.966    core radius for aug-charge                                                  
                                                                                                    
   Atomic configuration                                                                             
   11 entries                                                                                       
     n  l   j            E        occ.                                                              
     1  0  0.50    -24164.6632   2.0000                                                             
     2  0  0.50     -3530.9218   2.0000                                                             
     2  1  1.50     -3165.6822   6.0000                                                             
     3  0  0.50      -639.4578   2.0000                                                             
     3  1  1.50      -519.4532   6.0000                                                             
     3  2  2.50      -328.9758  10.0000                                                             
     4  0  0.50       -88.7014   2.0000                                                             
     4  1  1.50       -54.4541   6.0000                                                             
     4  2  2.50        -6.6878   9.0000                                                             
     5  0  0.50        -4.3543   1.0000                                                             
     4  3  2.50        -1.3606   0.0000                                                             
   Description                                                                                      
     l       E           TYP  RCUT    TYP  RCUT                                                     
     1    -54.4540524     23  2.100                                                                 
     1      4.0817478     23  2.100                                                                 
     2     -6.6878326     23  2.400                                                                 
     2     -4.0817478     23  2.400                                                                 
     0     -4.3542962     23  2.400                                                                 
     0     13.6058260     23  2.400                                                                 
     3     -5.4423304     23  2.400                                                                 
  local pseudopotential read in
  partial core-charges read in
  partial kinetic energy density read in
  atomic valenz-charges read in
  non local Contribution for L=            1  read in
    real space projection operators read in
  non local Contribution for L=            1  read in
    real space projection operators read in
  non local Contribution for L=            2  read in
    real space projection operators read in
  non local Contribution for L=            2  read in
    real space projection operators read in
  non local Contribution for L=            0  read in
    real space projection operators read in
  non local Contribution for L=            0  read in
    real space projection operators read in
    PAW grid and wavefunctions read in
 
   number of l-projection  operators is LMAX  =            6
   number of lm-projection operators is LMMAX =           18
 
 POTCAR:    PAW_PBE O 08Apr2002                   
   SHA256 =  818f92134a0a090dccd8ba1447fa70422a3b330e708bb4f08108d8ae51209ddf O/POTCAR              
   COPYR  = (c) Copyright 08Apr2002 Georg Kresse                                                    
   COPYR  = This file is part of the software VASP. Any use, copying, and all other rights are regul
   COPYR  = If you do not have a valid VASP license, you may not use, copy or distribute this file. 
   VRHFIN =O: s2p4                                                                                  
   LEXCH  = PE                                                                                      
   EATOM  =   432.3788 eV,   31.7789 Ry                                                             
                                                                                                    
   TITEL  = PAW_PBE O 08Apr2002                                                                     
   LULTRA =        F    use ultrasoft PP ?                                                          
   IUNSCR =        1    unscreen: 0-lin 1-nonlin 2-no                                               
   RPACOR =    1.200    partial core radius                                                         
   POMASS =   16.000; ZVAL   =    6.000    mass and valenz                                          
   RCORE  =    1.520    outmost cutoff radius                                                       
   RWIGS  =    1.550; RWIGS  =    0.820    wigner-seitz radius (au A)                               
   ENMAX  =  400.000; ENMIN  =  300.000 eV                                                          
   ICORE  =        2    local potential                                                             
   LCOR   =        T    correct aug charges                                                         
   LPAW   =        T    paw PP                                                                      
   EAUG   =  605.392                                                                                
   DEXC   =    0.000                                                                                
   RMAX   =    1.553    core radius for proj-oper                                                   
   RAUG   =    1.300    factor for augmentation sphere                                              
   RDEP   =    1.550    radius for radial grids                                                     
   RDEPT  =    1.329    core radius for aug-charge                                                  
                                                                                                    
   Atomic configuration                                                                             
    4 entries                                                                                       
     n  l   j            E        occ.                                                              
     1  0  0.50      -514.6923   2.0000                                                             
     2  0  0.50       -23.9615   2.0000                                                             
     2  1  0.50        -9.0305   4.0000                                                             
     3  2  1.50        -9.5241   0.0000                                                             
   Description                                                                                      
     l       E           TYP  RCUT    TYP  RCUT                                                     
     0    -23.9615318     23  1.200                                                                 
     0     -9.5240782     23  1.200                                                                 
     1     -9.0304911     23  1.520                                                                 
     1      8.1634956     23  1.520                                                                 
     2     -9.5240782      7  1.500                                                                 
  local pseudopotential read in
  partial core-charges read in
  partial kinetic energy density read in
  kinetic energy density of atom read in
  atomic valenz-charges read in
  non local Contribution for L=            0  read in
    real space projection operators read in
  non local Contribution for L=            0  read in
    real space projection operators read in
  non local Contribution for L=            1  read in
    real space projection operators read in
  non local Contribution for L=            1  read in
    real space projection operators read in
    PAW grid and wavefunctions read in
 
   number of l-projection  operators is LMAX  =            4
   number of lm-projection operators is LMMAX =            8
 
  PAW_PBE Pd_pv 28Jan2005               :
 energy of atom  1       EATOM=-2621.5550
 kinetic energy error for atom=    0.0088 (will be added to EATOM!!)
  PAW_PBE O 08Apr2002                   :
 energy of atom  2       EATOM= -432.3788
 kinetic energy error for atom=    0.0208 (will be added to EATOM!!)
 
 
 POSCAR: Pd O
  positions in cartesian coordinates
  No initial velocities read in
 IVDW         = 12
 VDW_S6       =    1.0000
 VDW_S8       =    0.7875
 VDW_A1       =    0.4289
 VDW_A2       =    4.4407
 VDW_RADIUS   =   50.2022 A
 VDW_CNRADIUS =   21.1671 A


 exchange-correlation table for PE
   RHO(1)=    0.500       N(1)  =     2000
   RHO(2)=  100.500       N(2)  =     4000
 


--------------------------------------------------------------------------------------------------------


 ion  position               nearest neighbor table
   1  0.500  0.000  0.500-   3 2.03   4 2.03   3 2.03   4 2.03
   2  0.000  0.500  0.000-   3 2.03   4 2.03   3 2.03   4 2.03
   3  0.000  0.000  0.750-   1 2.03   2 2.03   2 2.03   1 2.03
   4  0.000  0.000  0.250-   1 2.03   2 2.03   2 2.03   1 2.03
 
  LATTYP: Found a simple tetragonal cell.
 ALAT       =     3.0536041100
 C/A-ratio  =     1.7589892457
  
  Lattice vectors:
  
 A1 = (   3.0536041100,   0.0000000000,   0.0000000000)
 A2 = (   0.0000000000,   3.0536041100,   0.0000000000)
 A3 = (   0.0000000000,   0.0000000000,   5.3712567900)


Analysis of symmetry for initial positions (statically):
=====================================================================
 Subroutine PRICEL returns:
 Original cell was already a primitive cell.
 

 Routine SETGRP: Setting up the symmetry group for a 
 simple tetragonal supercell.


 Subroutine GETGRP returns: Found 16 space group operations
 (whereof  8 operations were pure point group operations)
 out of a pool of 16 trial point group operations.


The static configuration has the point symmetry D_2h.
 The point group associated with its full space group is D_4h.


Analysis of symmetry for dynamics (positions and initial velocities):
=====================================================================
 Subroutine PRICEL returns:
 Original cell was already a primitive cell.
 

 Routine SETGRP: Setting up the symmetry group for a 
 simple tetragonal supercell.


 Subroutine GETGRP returns: Found 16 space group operations
 (whereof  8 operations were pure point group operations)
 out of a pool of 16 trial point group operations.


The dynamic configuration has the point symmetry D_2h.
 The point group associated with its full space group is D_4h.


Analysis of structural, dynamic, and magnetic symmetry:
=====================================================================
 Subroutine PRICEL returns:
 Original cell was already a primitive cell.
 

 Routine SETGRP: Setting up the symmetry group for a 
 simple tetragonal supercell.


 Subroutine GETGRP returns: Found 16 space group operations
 (whereof  8 operations were pure point group operations)
 out of a pool of 16 trial point group operations.


The overall configuration has the point symmetry D_2h.
 The point group associated with its full space group is D_4h.


 Subroutine INISYM returns: Found 16 space group operations
 (whereof  8 operations are pure point group operations),
 and found     1 'primitive' translations


----------------------------------------------------------------------------------------

                                     Primitive cell                                     

  volume of cell :      50.0843

  direct lattice vectors                    reciprocal lattice vectors
     3.053604110  0.000000000  0.000000000     0.327481875 -0.000000000  0.000000000
     0.000000000  3.053604110  0.000000000     0.000000000  0.327481875  0.000000000
     0.000000000  0.000000000  5.371256790    -0.000000000 -0.000000000  0.186176167

  length of vectors
     3.053604110  3.053604110  5.371256790     0.327481875  0.327481875  0.186176167

  position of ions in fractional coordinates (direct lattice)
     0.500000000  0.000000000  0.500000000
     0.000000000  0.500000000  0.000000000
     0.000000000  0.000000000  0.750000000
     0.000000000  0.000000000  0.250000000

  ion indices of the primitive-cell ions
   primitive index   ion index
                 1           1
                 2           2
                 3           3
                 4           4

----------------------------------------------------------------------------------------

 
 
 KPOINTS: Automatic mesh                          

Automatic generation of k-mesh.
 Grid dimensions read from file:
 generate k-points for:    8    8    6

 Generating k-lattice:

  Cartesian coordinates                     Fractional coordinates (reciprocal lattice)
     0.040935234 -0.000000000  0.000000000     0.125000000  0.000000000  0.000000000
     0.000000000  0.040935234  0.000000000     0.000000000  0.125000000  0.000000000
    -0.000000000 -0.000000000  0.031029361     0.000000000  0.000000000  0.166666667

  Length of vectors
     0.040935234  0.040935234  0.031029361

  Shift w.r.t. Gamma in fractional coordinates (k-lattice)
     0.000000000  0.000000000  0.000000000

 
 Subroutine IBZKPT returns following result:
 ===========================================
 
 Found     60 irreducible k-points:
 
 Following reciprocal coordinates:
            Coordinates               Weight
  0.000000  0.000000  0.000000      1.000000
  0.125000  0.000000  0.000000      4.000000
  0.250000  0.000000  0.000000      4.000000
  0.375000  0.000000  0.000000      4.000000
  0.500000  0.000000  0.000000      2.000000
  0.125000  0.125000  0.000000      4.000000
  0.250000  0.125000  0.000000      8.000000
  0.375000  0.125000  0.000000      8.000000
  0.500000  0.125000  0.000000      4.000000
  0.250000  0.250000  0.000000      4.000000
  0.375000  0.250000  0.000000      8.000000
  0.500000  0.250000  0.000000      4.000000
  0.375000  0.375000  0.000000      4.000000
  0.500000  0.375000  0.000000      4.000000
  0.500000  0.500000  0.000000      1.000000
  0.000000  0.000000  0.166667      2.000000
  0.125000  0.000000  0.166667      8.000000
  0.250000  0.000000  0.166667      8.000000
  0.375000  0.000000  0.166667      8.000000
  0.500000  0.000000  0.166667      4.000000
  0.125000  0.125000  0.166667      8.000000
  0.250000  0.125000  0.166667     16.000000
  0.375000  0.125000  0.166667     16.000000
  0.500000  0.125000  0.166667      8.000000
  0.250000  0.250000  0.166667      8.000000
  0.375000  0.250000  0.166667     16.000000
  0.500000  0.250000  0.166667      8.000000
  0.375000  0.375000  0.166667      8.000000
  0.500000  0.375000  0.166667      8.000000
  0.500000  0.500000  0.166667      2.000000
  0.000000  0.000000  0.333333      2.000000
  0.125000  0.000000  0.333333      8.000000
  0.250000  0.000000  0.333333      8.000000
  0.375000  0.000000  0.333333      8.000000
  0.500000  0.000000  0.333333      4.000000
  0.125000  0.125000  0.333333      8.000000
  0.250000  0.125000  0.333333     16.000000
  0.375000  0.125000  0.333333     16.000000
  0.500000  0.125000  0.333333      8.000000
  0.250000  0.250000  0.333333      8.000000
  0.375000  0.250000  0.333333     16.000000
  0.500000  0.250000  0.333333      8.000000
  0.375000  0.375000  0.333333      8.000000
  0.500000  0.375000  0.333333      8.000000
  0.500000  0.500000  0.333333      2.000000
  0.000000  0.000000  0.500000      1.000000
  0.125000  0.000000  0.500000      4.000000
  0.250000  0.000000  0.500000      4.000000
  0.375000  0.000000  0.500000      4.000000
  0.500000  0.000000  0.500000      2.000000
  0.125000  0.125000  0.500000      4.000000
  0.250000  0.125000  0.500000      8.000000
  0.375000  0.125000  0.500000      8.000000
  0.500000  0.125000  0.500000      4.000000
  0.250000  0.250000  0.500000      4.000000
  0.375000  0.250000  0.500000      8.000000
  0.500000  0.250000  0.500000      4.000000
  0.375000  0.375000  0.500000      4.000000
  0.500000  0.375000  0.500000      4.000000
  0.500000  0.500000  0.500000      1.000000
 
 Following cartesian coordinates:
            Coordinates               Weight
  0.000000  0.000000  0.000000      1.000000
  0.040935  0.000000  0.000000      4.000000
  0.081870  0.000000  0.000000      4.000000
  0.122806  0.000000  0.000000      4.000000
  0.163741  0.000000  0.000000      2.000000
  0.040935  0.040935  0.000000      4.000000
  0.081870  0.040935  0.000000      8.000000
  0.122806  0.040935  0.000000      8.000000
  0.163741  0.040935  0.000000      4.000000
  0.081870  0.081870  0.000000      4.000000
  0.122806  0.081870  0.000000      8.000000
  0.163741  0.081870  0.000000      4.000000
  0.122806  0.122806  0.000000      4.000000
  0.163741  0.122806  0.000000      4.000000
  0.163741  0.163741  0.000000      1.000000
  0.000000  0.000000  0.031029      2.000000
  0.040935  0.000000  0.031029      8.000000
  0.081870  0.000000  0.031029      8.000000
  0.122806  0.000000  0.031029      8.000000
  0.163741  0.000000  0.031029      4.000000
  0.040935  0.040935  0.031029      8.000000
  0.081870  0.040935  0.031029     16.000000
  0.122806  0.040935  0.031029     16.000000
  0.163741  0.040935  0.031029      8.000000
  0.081870  0.081870  0.031029      8.000000
  0.122806  0.081870  0.031029     16.000000
  0.163741  0.081870  0.031029      8.000000
  0.122806  0.122806  0.031029      8.000000
  0.163741  0.122806  0.031029      8.000000
  0.163741  0.163741  0.031029      2.000000
  0.000000  0.000000  0.062059      2.000000
  0.040935  0.000000  0.062059      8.000000
  0.081870  0.000000  0.062059      8.000000
  0.122806  0.000000  0.062059      8.000000
  0.163741  0.000000  0.062059      4.000000
  0.040935  0.040935  0.062059      8.000000
  0.081870  0.040935  0.062059     16.000000
  0.122806  0.040935  0.062059     16.000000
  0.163741  0.040935  0.062059      8.000000
  0.081870  0.081870  0.062059      8.000000
  0.122806  0.081870  0.062059     16.000000
  0.163741  0.081870  0.062059      8.000000
  0.122806  0.122806  0.062059      8.000000
  0.163741  0.122806  0.062059      8.000000
  0.163741  0.163741  0.062059      2.000000
  0.000000  0.000000  0.093088      1.000000
  0.040935  0.000000  0.093088      4.000000
  0.081870  0.000000  0.093088      4.000000
  0.122806  0.000000  0.093088      4.000000
  0.163741  0.000000  0.093088      2.000000
  0.040935  0.040935  0.093088      4.000000
  0.081870  0.040935  0.093088      8.000000
  0.122806  0.040935  0.093088      8.000000
  0.163741  0.040935  0.093088      4.000000
  0.081870  0.081870  0.093088      4.000000
  0.122806  0.081870  0.093088      8.000000
  0.163741  0.081870  0.093088      4.000000
  0.122806  0.122806  0.093088      4.000000
  0.163741  0.122806  0.093088      4.000000
  0.163741  0.163741  0.093088      1.000000
 


--------------------------------------------------------------------------------------------------------




 Dimension of arrays:
   k-points           NKPTS =     60   k-points in BZ     NKDIM =     60   number of bands    NBANDS=     28
   number of dos      NEDOS =    301   number of ions     NIONS =      4
   non local maximal  LDIM  =      6   non local SUM 2l+1 LMDIM =     18
   total plane-waves  NPLWV =  23040
   max r-space proj   IRMAX =      1   max aug-charges    IRDMAX= 147517
   dimension x,y,z NGX =    24 NGY =   24 NGZ =   40
   dimension x,y,z NGXF=    48 NGYF=   48 NGZF=   80
   support grid    NGXF=    96 NGYF=   96 NGZF=  160
   ions per type =               2   2
   NGX,Y,Z   is equivalent  to a cutoff of  13.07, 13.07, 12.38 a.u.
   NGXF,Y,Z  is equivalent  to a cutoff of  26.13, 26.13, 24.76 a.u.

 SYSTEM =  pddmc                                   
 POSCAR =  Pd O                                    

 Startparameter for this run:
   NWRITE =      2    write-flag & timer
   PREC   = accura    normal or accurate (medium, high low for compatibility)
   ISTART =      0    job   : 0-new  1-cont  2-samecut
   ICHARG =      2    charge: 1-file 2-atom 10-const
   ISPIN  =      2    spin polarized calculation?
   LNONCOLLINEAR =      F non collinear calculations
   LSORBIT =      F    spin-orbit coupling
   INIWAV =      1    electr: 0-lowe 1-rand  2-diag
   LASPH  =      T    aspherical Exc in radial PAW
 Electronic Relaxation 1
   ENCUT  =  520.0 eV  38.22 Ry    6.18 a.u.   5.68  5.68  9.99*2*pi/ulx,y,z
   ENINI  =  520.0     initial cutoff
   ENAUG  =  605.4 eV  augmentation charge cutoff
   NELM   =    200;   NELMIN=  5; NELMDL= -5     # of ELM steps 
   EDIFF  = 0.1E-05   stopping-criterion for ELM
   LREAL  =      F    real-space projection
   NLSPLINE    = F    spline interpolate recip. space projectors
   LCOMPAT=      F    compatible to vasp.4.4
   GGA_COMPAT  = T    GGA compatible to vasp.4.4-vasp.4.6
   LMAXPAW     = -100 max onsite density
   LMAXMIX     =    2 max onsite mixed and CHGCAR
   VOSKOWN=      0    Vosko Wilk Nusair interpolation
   ROPT   =    0.00000   0.00000
 Ionic relaxation
   EDIFFG = -.1E-01   stopping-criterion for IOM
   NSW    =    200    number of steps for IOM
   NBLOCK =      1;   KBLOCK =    200    inner block; outer block 
   IBRION =      2    ionic relax: 0-MD 1-quasi-New 2-CG
   NFREE  =      1    steps in history (QN), initial steepest desc. (CG)
   ISIF   =      3    stress and relaxation
   IWAVPR =     11    prediction:  0-non 1-charg 2-wave 3-comb
   ISYM   =      2    0-nonsym 1-usesym 2-fastsym
   LCORR  =      T    Harris-Foulkes like correction to forces

   POTIM  = 0.5000    time-step for ionic-motion
   TEIN   =    0.0    initial temperature
   TEBEG  =    0.0;   TEEND  =   0.0 temperature during run
   SMASS  =  -3.00    Nose mass-parameter (am)
   estimated Nose-frequenzy (Omega)   =  0.10E-29 period in steps = 0.13E+47 mass=  -0.213E-27a.u.
   SCALEE = 1.0000    scale energy and forces
   NPACO  =    256;   APACO  = 10.0  distance and # of slots for P.C.
   PSTRESS=    0.0 pullay stress

  Mass of Ions in am
   POMASS = 106.42 16.00
  Ionic Valenz
   ZVAL   =  16.00  6.00
  Atomic Wigner-Seitz radii
   RWIGS  =  -1.00 -1.00
  virtual crystal weights 
   VCA    =   1.00  1.00
   NELECT =      44.0000    total number of electrons
   NUPDOWN=      -1.0000    fix difference up-down

 DOS related values:
   EMIN   =  10.00;   EMAX   =-10.00  energy-range for DOS
   EFERMI =   0.00;   METHOD = LEGACY      
   ISMEAR =     0;   SIGMA  =   0.05  broadening in eV -4-tet -1-fermi 0-gaus

 Electronic relaxation 2 (details)
   IALGO  =     38    algorithm
   LDIAG  =      T    sub-space diagonalisation (order eigenvalues)
   LSUBROT=      F    optimize rotation matrix (better conditioning)
   TURBO    =      0    0=normal 1=particle mesh
   IRESTART =      0    0=no restart 2=restart with 2 vectors
   NREBOOT  =      0    no. of reboots
   NMIN     =      0    reboot dimension
   EREF     =   0.00    reference energy to select bands
   IMIX   =      4    mixing-type and parameters
     AMIX     =   0.40;   BMIX     =  1.00
     AMIX_MAG =   1.60;   BMIX_MAG =  1.00
     AMIN     =   0.10
     WC   =   100.;   INIMIX=   1;  MIXPRE=   1;  MAXMIX= -45

 Intra band minimization:
   WEIMIN = 0.0010     energy-eigenvalue tresh-hold
   EBREAK =  0.89E-08  absolut break condition
   DEPER  =   0.30     relativ break condition  

   TIME   =   0.40     timestep for ELM

  volume/ion in A,a.u.               =      12.52        84.50
  Fermi-wavevector in a.u.,A,eV,Ry     =   1.567925  2.962948 33.448407  2.458389
  Thomas-Fermi vector in A             =   2.670032
 
 Write flags
   LWAVE        =      F    write WAVECAR
   LDOWNSAMPLE  =      F    k-point downsampling of WAVECAR
   LCHARG       =      F    write CHGCAR
   LVTOT        =      F    write LOCPOT, total local potential
   LVHAR        =      F    write LOCPOT, Hartree potential only
   WRT_POTENTIAL= false  ! write potential to hdf5 file
   LELF         =      F    write electronic localiz. function (ELF)
   LORBIT       =     11    0 simple, 1 ext, 2 COOP (PROOUT), +10 PAW based schemes


 Dipole corrections
   LMONO      =      F    monopole corrections only (constant potential shift)
   LDIPOL     =      F    correct potential (dipole corrections)
   IDIPOL     =      0    1-x, 2-y, 3-z, 4-all directions 
   EPSILON    =  1.0000000 bulk dielectric constant
   LVACPOTAV  =      F  vacuum potentials using an averaging scheme for the charge density
   VACPOTFLAT =  0.1000000 required flatness to determine vacuum potential
 Exchange correlation treatment:
   GGA     = PE    functional components
   XC_C    = 1    coefficients multiplying the functional components
   LIBXC   =     F    Libxc                    
   VOSKOWN =     0    Vosko Wilk Nusair interpolation
   LHFCALC =     F    Hartree Fock is set to
   LHFONE  =     F    Hartree Fock one center treatment
   AEXX    =    0.0000 exact exchange contribution

 Parameters of functionals:
   PE:
     No parameter
 
 Van der Waals corrections
   IVDW    =    12    specifies the selected vdW correction

 Linear response parameters
   LEPSILON=     F    determine dielectric tensor
   LRPA    =     F    only Hartree local field effects (RPA)
   LNABLA  =     F    use nabla operator in PAW spheres
   LVEL    =     F    velocity operator in full k-point grid
   CSHIFT  =0.1000    complex shift for real part using Kramers Kronig
   OMEGAMAX=  -1.0    maximum frequency
   DEG_THRESHOLD= 0.2000000E-02 threshold for treating states as degnerate
   RTIME   =   -0.100 relaxation time in fs
  (WPLASMAI=    0.000 imaginary part of plasma frequency in eV, 0.658/RTIME)
   DFIELD  = 0.0000000 0.0000000 0.0000000 field for delta impulse in time
 
  Optional k-point grid parameters
   LKPOINTS_OPT  =     F    use optional k-point grid
   KPOINTS_OPT_MODE=     1    mode for optional k-point grid
 
 Orbital magnetization related:
   ORBITALMAG=     F  switch on orbital magnetization
   LCHIMAG   =     F  perturbation theory with respect to B field
   DQ        =  0.001000  dq finite difference perturbation B field
   LLRAUG    =     F  two centre corrections for induced B field
   LBONE     =     F  B-component reconstruction in AE one-centre
   LVGVCALC  =     T  calculate vGv susceptibility
   LVGVAPPL  =     F  apply vGv susceptibility instead of pGv for G=0

 Random number generation:
   RANDOM_GENERATOR = DEFAULT
   PCG_SEED         = not used


--------------------------------------------------------------------------------------------------------


 conjugate gradient relaxation of ions
 charge density and potential will be updated during run
 spin polarized calculation
 Variant of blocked Davidson
 Davidson routine will perform the subspace rotation
 perform sub-space diagonalisation
    after iterative eigenvector-optimisation
 modified Broyden-mixing scheme, WC =      100.0
 initial mixing is a Kerker type mixing with AMIX =  0.4000 and BMIX =      1.0000
 Hartree-type preconditioning will be used
 using additional bands             6
 reciprocal scheme for non local part
 use partial core corrections
 calculate Harris-corrections to forces 
   (improved forces if not selfconsistent)
 use gradient corrections 
 use of overlap-Matrix (Vanderbilt PP)
 Gauss-broadening in eV      SIGMA  =   0.05


--------------------------------------------------------------------------------------------------------


  energy-cutoff  :      520.00
  volume of cell :       50.08
      direct lattice vectors                 reciprocal lattice vectors
     3.053604110  0.000000000  0.000000000     0.327481875 -0.000000000  0.000000000
     0.000000000  3.053604110  0.000000000     0.000000000  0.327481875  0.000000000
     0.000000000  0.000000000  5.371256790    -0.000000000 -0.000000000  0.186176167

  length of vectors
     3.053604110  3.053604110  5.371256790     0.327481875  0.327481875  0.186176167


 
 k-points in units of 2pi/SCALE and weight: Automatic mesh                          
   0.00000000  0.00000000  0.00000000       0.003
   0.04093523  0.00000000  0.00000000       0.010
   0.08187047  0.00000000  0.00000000       0.010
   0.12280570  0.00000000  0.00000000       0.010
   0.16374094  0.00000000  0.00000000       0.005
   0.04093523  0.04093523  0.00000000       0.010
   0.08187047  0.04093523  0.00000000       0.021
   0.12280570  0.04093523  0.00000000       0.021
   0.16374094  0.04093523  0.00000000       0.010
   0.08187047  0.08187047  0.00000000       0.010
   0.12280570  0.08187047  0.00000000       0.021
   0.16374094  0.08187047  0.00000000       0.010
   0.12280570  0.12280570  0.00000000       0.010
   0.16374094  0.12280570  0.00000000       0.010
   0.16374094  0.16374094  0.00000000       0.003
   0.00000000  0.00000000  0.03102936       0.005
   0.04093523  0.00000000  0.03102936       0.021
   0.08187047  0.00000000  0.03102936       0.021
   0.12280570  0.00000000  0.03102936       0.021
   0.16374094  0.00000000  0.03102936       0.010
   0.04093523  0.04093523  0.03102936       0.021
   0.08187047  0.04093523  0.03102936       0.042
   0.12280570  0.04093523  0.03102936       0.042
   0.16374094  0.04093523  0.03102936       0.021
   0.08187047  0.08187047  0.03102936       0.021
   0.12280570  0.08187047  0.03102936       0.042
   0.16374094  0.08187047  0.03102936       0.021
   0.12280570  0.12280570  0.03102936       0.021
   0.16374094  0.12280570  0.03102936       0.021
   0.16374094  0.16374094  0.03102936       0.005
   0.00000000  0.00000000  0.06205872       0.005
   0.04093523  0.00000000  0.06205872       0.021
   0.08187047  0.00000000  0.06205872       0.021
   0.12280570  0.00000000  0.06205872       0.021
   0.16374094  0.00000000  0.06205872       0.010
   0.04093523  0.04093523  0.06205872       0.021
   0.08187047  0.04093523  0.06205872       0.042
   0.12280570  0.04093523  0.06205872       0.042
   0.16374094  0.04093523  0.06205872       0.021
   0.08187047  0.08187047  0.06205872       0.021
   0.12280570  0.08187047  0.06205872       0.042
   0.16374094  0.08187047  0.06205872       0.021
   0.12280570  0.12280570  0.06205872       0.021
   0.16374094  0.12280570  0.06205872       0.021
   0.16374094  0.16374094  0.06205872       0.005
   0.00000000  0.00000000  0.09308808       0.003
   0.04093523  0.00000000  0.09308808       0.010
   0.08187047  0.00000000  0.09308808       0.010
   0.12280570  0.00000000  0.09308808       0.010
   0.16374094  0.00000000  0.09308808       0.005
   0.04093523  0.04093523  0.09308808       0.010
   0.08187047  0.04093523  0.09308808       0.021
   0.12280570  0.04093523  0.09308808       0.021
   0.16374094  0.04093523  0.09308808       0.010
   0.08187047  0.08187047  0.09308808       0.010
   0.12280570  0.08187047  0.09308808       0.021
   0.16374094  0.08187047  0.09308808       0.010
   0.12280570  0.12280570  0.09308808       0.010
   0.16374094  0.12280570  0.09308808       0.010
   0.16374094  0.16374094  0.09308808       0.003
 
 k-points in reciprocal lattice and weights: Automatic mesh                          
   0.00000000  0.00000000  0.00000000       0.003
   0.12500000  0.00000000  0.00000000       0.010
   0.25000000  0.00000000  0.00000000       0.010
   0.37500000  0.00000000  0.00000000       0.010
   0.50000000  0.00000000  0.00000000       0.005
   0.12500000  0.12500000  0.00000000       0.010
   0.25000000  0.12500000  0.00000000       0.021
   0.37500000  0.12500000  0.00000000       0.021
   0.50000000  0.12500000  0.00000000       0.010
   0.25000000  0.25000000  0.00000000       0.010
   0.37500000  0.25000000  0.00000000       0.021
   0.50000000  0.25000000  0.00000000       0.010
   0.37500000  0.37500000  0.00000000       0.010
   0.50000000  0.37500000  0.00000000       0.010
   0.50000000  0.50000000  0.00000000       0.003
   0.00000000  0.00000000  0.16666667       0.005
   0.12500000  0.00000000  0.16666667       0.021
   0.25000000  0.00000000  0.16666667       0.021
   0.37500000  0.00000000  0.16666667       0.021
   0.50000000  0.00000000  0.16666667       0.010
   0.12500000  0.12500000  0.16666667       0.021
   0.25000000  0.12500000  0.16666667       0.042
   0.37500000  0.12500000  0.16666667       0.042
   0.50000000  0.12500000  0.16666667       0.021
   0.25000000  0.25000000  0.16666667       0.021
   0.37500000  0.25000000  0.16666667       0.042
   0.50000000  0.25000000  0.16666667       0.021
   0.37500000  0.37500000  0.16666667       0.021
   0.50000000  0.37500000  0.16666667       0.021
   0.50000000  0.50000000  0.16666667       0.005
   0.00000000  0.00000000  0.33333333       0.005
   0.12500000  0.00000000  0.33333333       0.021
   0.25000000  0.00000000  0.33333333       0.021
   0.37500000  0.00000000  0.33333333       0.021
   0.50000000  0.00000000  0.33333333       0.010
   0.12500000  0.12500000  0.33333333       0.021
   0.25000000  0.12500000  0.33333333       0.042
   0.37500000  0.12500000  0.33333333       0.042
   0.50000000  0.12500000  0.33333333       0.021
   0.25000000  0.25000000  0.33333333       0.021
   0.37500000  0.25000000  0.33333333       0.042
   0.50000000  0.25000000  0.33333333       0.021
   0.37500000  0.37500000  0.33333333       0.021
   0.50000000  0.37500000  0.33333333       0.021
   0.50000000  0.50000000  0.33333333       0.005
   0.00000000  0.00000000  0.50000000       0.003
   0.12500000  0.00000000  0.50000000       0.010
   0.25000000  0.00000000  0.50000000       0.010
   0.37500000  0.00000000  0.50000000       0.010
   0.50000000  0.00000000  0.50000000       0.005
   0.12500000  0.12500000  0.50000000       0.010
   0.25000000  0.12500000  0.50000000       0.021
   0.37500000  0.12500000  0.50000000       0.021
   0.50000000  0.12500000  0.50000000       0.010
   0.25000000  0.25000000  0.50000000       0.010
   0.37500000  0.25000000  0.50000000       0.021
   0.50000000  0.25000000  0.50000000       0.010
   0.37500000  0.37500000  0.50000000       0.010
   0.50000000  0.37500000  0.50000000       0.010
   0.50000000  0.50000000  0.50000000       0.003
 
 position of ions in fractional coordinates (direct lattice) 
   0.50000000  0.00000000  0.50000000
   0.00000000  0.50000000  0.00000000
   0.00000000  0.00000000  0.75000000
   0.00000000  0.00000000  0.25000000
 
 position of ions in cartesian coordinates  (Angst):
   1.52680206  0.00000000  2.68562840
   0.00000000  1.52680206  0.00000000
   0.00000000  0.00000000  4.02844259
   0.00000000  0.00000000  1.34281420
 


--------------------------------------------------------------------------------------------------------


 k-point     1 :   0.0000 0.0000 0.0000  plane waves:    1351
 k-point     2 :   0.1250 0.0000 0.0000  plane waves:    1345
 k-point     3 :   0.2500 0.0000 0.0000  plane waves:    1349
 k-point     4 :   0.3750 0.0000 0.0000  plane waves:    1360
 k-point     5 :   0.5000 0.0000 0.0000  plane waves:    1348
 k-point     6 :   0.1250 0.1250 0.0000  plane waves:    1352
 k-point     7 :   0.2500 0.1250 0.0000  plane waves:    1351
 k-point     8 :   0.3750 0.1250 0.0000  plane waves:    1347
 k-point     9 :   0.5000 0.1250 0.0000  plane waves:    1350
 k-point    10 :   0.2500 0.2500 0.0000  plane waves:    1344
 k-point    11 :   0.3750 0.2500 0.0000  plane waves:    1334
 k-point    12 :   0.5000 0.2500 0.0000  plane waves:    1350
 k-point    13 :   0.3750 0.3750 0.0000  plane waves:    1346
 k-point    14 :   0.5000 0.3750 0.0000  plane waves:    1332
 k-point    15 :   0.5000 0.5000 0.0000  plane waves:    1320
 k-point    16 :   0.0000 0.0000 0.1667  plane waves:    1344
 k-point    17 :   0.1250 0.0000 0.1667  plane waves:    1347
 k-point    18 :   0.2500 0.0000 0.1667  plane waves:    1359
 k-point    19 :   0.3750 0.0000 0.1667  plane waves:    1351
 k-point    20 :   0.5000 0.0000 0.1667  plane waves:    1348
 k-point    21 :   0.1250 0.1250 0.1667  plane waves:    1344
 k-point    22 :   0.2500 0.1250 0.1667  plane waves:    1351
 k-point    23 :   0.3750 0.1250 0.1667  plane waves:    1353
 k-point    24 :   0.5000 0.1250 0.1667  plane waves:    1352
 k-point    25 :   0.2500 0.2500 0.1667  plane waves:    1349
 k-point    26 :   0.3750 0.2500 0.1667  plane waves:    1344
 k-point    27 :   0.5000 0.2500 0.1667  plane waves:    1344
 k-point    28 :   0.3750 0.3750 0.1667  plane waves:    1336
 k-point    29 :   0.5000 0.3750 0.1667  plane waves:    1340
 k-point    30 :   0.5000 0.5000 0.1667  plane waves:    1328
 k-point    31 :   0.0000 0.0000 0.3333  plane waves:    1356
 k-point    32 :   0.1250 0.0000 0.3333  plane waves:    1353
 k-point    33 :   0.2500 0.0000 0.3333  plane waves:    1350
 k-point    34 :   0.3750 0.0000 0.3333  plane waves:    1357
 k-point    35 :   0.5000 0.0000 0.3333  plane waves:    1360
 k-point    36 :   0.1250 0.1250 0.3333  plane waves:    1351
 k-point    37 :   0.2500 0.1250 0.3333  plane waves:    1350
 k-point    38 :   0.3750 0.1250 0.3333  plane waves:    1350
 k-point    39 :   0.5000 0.1250 0.3333  plane waves:    1358
 k-point    40 :   0.2500 0.2500 0.3333  plane waves:    1342
 k-point    41 :   0.3750 0.2500 0.3333  plane waves:    1352
 k-point    42 :   0.5000 0.2500 0.3333  plane waves:    1356
 k-point    43 :   0.3750 0.3750 0.3333  plane waves:    1341
 k-point    44 :   0.5000 0.3750 0.3333  plane waves:    1342
 k-point    45 :   0.5000 0.5000 0.3333  plane waves:    1320
 k-point    46 :   0.0000 0.0000 0.5000  plane waves:    1348
 k-point    47 :   0.1250 0.0000 0.5000  plane waves:    1340
 k-point    48 :   0.2500 0.0000 0.5000  plane waves:    1342
 k-point    49 :   0.3750 0.0000 0.5000  plane waves:    1352
 k-point    50 :   0.5000 0.0000 0.5000  plane waves:    1372
 k-point    51 :   0.1250 0.1250 0.5000  plane waves:    1354
 k-point    52 :   0.2500 0.1250 0.5000  plane waves:    1350
 k-point    53 :   0.3750 0.1250 0.5000  plane waves:    1348
 k-point    54 :   0.5000 0.1250 0.5000  plane waves:    1352
 k-point    55 :   0.2500 0.2500 0.5000  plane waves:    1346
 k-point    56 :   0.3750 0.2500 0.5000  plane waves:    1352
 k-point    57 :   0.5000 0.2500 0.5000  plane waves:    1352
 k-point    58 :   0.3750 0.3750 0.5000  plane waves:    1350
 k-point    59 :   0.5000 0.3750 0.5000  plane waves:    1352
 k-point    60 :   0.5000 0.5000 0.5000  plane waves:    1328

 maximum and minimum number of plane-waves per node :      1372     1320

 maximum number of plane-waves:      1372
 maximum index in each direction: 
   IXMAX=    5   IYMAX=    5   IZMAX=    9
   IXMIN=   -6   IYMIN=   -6   IZMIN=  -10


 serial   3D FFT for wavefunctions
 parallel 3D FFT for charge:
    minimum data exchange during FFTs selected (reduces bandwidth)


 total amount of memory used by VASP MPI-rank0    85574. kBytes
=======================================================================

   base      :      30000. kBytes
   nonl-proj :      23795. kBytes
   fftplans  :       6896. kBytes
   grid      :       5621. kBytes
   one-center:        124. kBytes
   wavefun   :      19138. kBytes
 
     INWAV:  cpu time      0.0000: real time      0.0001
 Broyden mixing: mesh for mixing (old mesh)
   NGX = 11   NGY = 11   NGZ = 19
  (NGX  = 48   NGY  = 48   NGZ  = 80)
  gives a total of   2299 points

 initial charge density was supplied:
 charge density of overlapping atoms calculated
 number of electron      44.0000000 magnetization       4.0000000
 keeping initial charge density in first step


--------------------------------------------------------------------------------------------------------


 Maximum index for augmentation-charges         35753 (set IRDMAX)


--------------------------------------------------------------------------------------------------------


 First call to EWALD:  gamma=   0.481
 Maximum number of real-space cells 3x 3x 2
 Maximum number of reciprocal cells 2x 2x 4

    FEWALD:  cpu time      0.0004: real time      0.0004


--------------------------------------- Ionic step        1  -------------------------------------------




--------------------------------------- Iteration      1(   1)  ---------------------------------------


    POTLOK:  cpu time      0.0363: real time      0.0481
    SETDIJ:  cpu time      0.2845: real time      0.6247
     EDDAV:  cpu time      3.3125: real time      3.3147
       DOS:  cpu time      0.0008: real time      0.0008
    --------------------------------------------
      LOOP:  cpu time      3.6341: real time      3.9883

 eigenvalue-minimisations  :  6720
 total energy-change (2. order) : 0.4753094E+03  (-0.2784155E+04)
 number of electron      44.0000000 magnetization       4.0000000
 augmentation part       44.0000000 magnetization       4.0000000

 Free energy of the ion-electron system (eV)
  ---------------------------------------------------
  alpha Z        PSCENC =       264.60919239
  Ewald energy   TEWEN  =     -4637.17866551
  -Hartree energ DENC   =     -1556.19354633
  -exchange      EXHF   =         0.00000000
  -V(xc)+E(xc)   XCENC  =       221.00441200
  PAW double counting   =      5208.65407777    -5154.59282805
  entropy T*S    EENTRO =        -0.00184470
  eigenvalues    EBANDS =        21.20019750
  atomic energy  EATOM  =      6107.80840369
  Solvation  Ediel_sol  =         0.00000000
  ---------------------------------------------------
  free energy    TOTEN  =       475.30939877 eV

  energy without entropy =      475.31124347  energy(sigma->0) =      475.31032112


--------------------------------------------------------------------------------------------------------




--------------------------------------- Iteration      1(   2)  ---------------------------------------


     EDDAV:  cpu time      3.0873: real time      3.2895
       DOS:  cpu time      0.0006: real time      0.0006
    --------------------------------------------
      LOOP:  cpu time      3.0879: real time      3.2901

 eigenvalue-minimisations  :  7400
 total energy-change (2. order) :-0.4757185E+03  (-0.4601243E+03)
 number of electron      44.0000000 magnetization       4.0000000
 augmentation part       44.0000000 magnetization       4.0000000

 Free energy of the ion-electron system (eV)
  ---------------------------------------------------
  alpha Z        PSCENC =       264.60919239
  Ewald energy   TEWEN  =     -4637.17866551
  -Hartree energ DENC   =     -1556.19354633
  -exchange      EXHF   =         0.00000000
  -V(xc)+E(xc)   XCENC  =       221.00441200
  PAW double counting   =      5208.65407777    -5154.59282805
  entropy T*S    EENTRO =        -0.00238470
  eigenvalues    EBANDS =      -454.51775573
  atomic energy  EATOM  =      6107.80840369
  Solvation  Ediel_sol  =         0.00000000
  ---------------------------------------------------
  free energy    TOTEN  =        -0.40909447 eV

  energy without entropy =       -0.40670977  energy(sigma->0) =       -0.40790212


--------------------------------------------------------------------------------------------------------




--------------------------------------- Iteration      1(   3)  ---------------------------------------


     EDDAV:  cpu time      2.6615: real time      2.6891
       DOS:  cpu time      0.0006: real time      0.0006
    --------------------------------------------
      LOOP:  cpu time      2.6621: real time      2.6897

 eigenvalue-minimisations  :  7432
 total energy-change (2. order) :-0.2367236E+02  (-0.2338547E+02)
 number of electron      44.0000000 magnetization       4.0000000
 augmentation part       44.0000000 magnetization       4.0000000

 Free energy of the ion-electron system (eV)
  ---------------------------------------------------
  alpha Z        PSCENC =       264.60919239
  Ewald energy   TEWEN  =     -4637.17866551
  -Hartree energ DENC   =     -1556.19354633
  -exchange      EXHF   =         0.00000000
  -V(xc)+E(xc)   XCENC  =       221.00441200
  PAW double counting   =      5208.65407777    -5154.59282805
  entropy T*S    EENTRO =        -0.00204963
  eigenvalues    EBANDS =      -478.19044735
  atomic energy  EATOM  =      6107.80840369
  Solvation  Ediel_sol  =         0.00000000
  ---------------------------------------------------
  free energy    TOTEN  =       -24.08145102 eV

  energy without entropy =      -24.07940139  energy(sigma->0) =      -24.08042620


--------------------------------------------------------------------------------------------------------




--------------------------------------- Iteration      1(   4)  ---------------------------------------


     EDDAV:  cpu time      3.0958: real time      3.0964
       DOS:  cpu time      0.0006: real time      0.0006
    --------------------------------------------
      LOOP:  cpu time      3.0964: real time      3.0970

 eigenvalue-minimisations  :  7284
 total energy-change (2. order) :-0.2844368E+00  (-0.2842113E+00)
 number of electron      44.0000000 magnetization       4.0000000
 augmentation part       44.0000000 magnetization       4.0000000

 Free energy of the ion-electron system (eV)
  ---------------------------------------------------
  alpha Z        PSCENC =       264.60919239
  Ewald energy   TEWEN  =     -4637.17866551
  -Hartree energ DENC   =     -1556.19354633
  -exchange      EXHF   =         0.00000000
  -V(xc)+E(xc)   XCENC  =       221.00441200
  PAW double counting   =      5208.65407777    -5154.59282805
  entropy T*S    EENTRO =        -0.00210747
  eigenvalues    EBANDS =      -478.47482636
  atomic energy  EATOM  =      6107.80840369
  Solvation  Ediel_sol  =         0.00000000
  ---------------------------------------------------
  free energy    TOTEN  =       -24.36588787 eV

  energy without entropy =      -24.36378040  energy(sigma->0) =      -24.36483413


--------------------------------------------------------------------------------------------------------




--------------------------------------- Iteration      1(   5)  ---------------------------------------


     EDDAV:  cpu time      2.6359: real time      2.6363
       DOS:  cpu time      0.0006: real time      0.0005
    CHARGE:  cpu time      0.2374: real time      0.2375
    MIXING:  cpu time      0.0010: real time      0.0010
    --------------------------------------------
      LOOP:  cpu time      2.8749: real time      2.8753

 eigenvalue-minimisations  :  7428
 total energy-change (2. order) :-0.2960654E-02  (-0.2960451E-02)
 number of electron      44.0000001 magnetization       0.7227247
 augmentation part       16.2019507 magnetization       0.5628460

 Broyden mixing:
  rms(total) = 0.17632E+01    rms(broyden)= 0.17626E+01
  rms(prec ) = 0.26823E+01
  weight for this iteration     100.00

 Free energy of the ion-electron system (eV)
  ---------------------------------------------------
  alpha Z        PSCENC =       264.60919239
  Ewald energy   TEWEN  =     -4637.17866551
  -Hartree energ DENC   =     -1556.19354633
  -exchange      EXHF   =         0.00000000
  -V(xc)+E(xc)   XCENC  =       221.00441200
  PAW double counting   =      5208.65407777    -5154.59282805
  entropy T*S    EENTRO =        -0.00210825
  eigenvalues    EBANDS =      -478.47778624
  atomic energy  EATOM  =      6107.80840369
  Solvation  Ediel_sol  =         0.00000000
  ---------------------------------------------------
  free energy    TOTEN  =       -24.36884852 eV

  energy without entropy =      -24.36674027  energy(sigma->0) =      -24.36779440


--------------------------------------------------------------------------------------------------------




--------------------------------------- Iteration      1(   6)  ---------------------------------------


    POTLOK:  cpu time      0.0347: real time      0.0348
    SETDIJ:  cpu time      0.4045: real time      0.4045
     EDDAV:  cpu time      2.4983: real time      2.4990
       DOS:  cpu time      0.0005: real time      0.0005
    CHARGE:  cpu time      0.2374: real time      0.2373
    MIXING:  cpu time      0.0010: real time      0.0010
    --------------------------------------------
      LOOP:  cpu time      3.1764: real time      3.1772

 eigenvalue-minimisations  :  7044
 total energy-change (2. order) : 0.1625596E+01  (-0.1556681E+01)
 number of electron      44.0000001 magnetization       0.2491181
 augmentation part       16.8356780 magnetization       0.1917650

 Broyden mixing:
  rms(total) = 0.71320E+00    rms(broyden)= 0.71261E+00
  rms(prec ) = 0.12177E+01
  weight for this iteration     100.00

 eigenvalues of (default mixing * dielectric matrix)
  average eigenvalue GAMMA=   0.8343
  0.8343

 Free energy of the ion-electron system (eV)
  ---------------------------------------------------
  alpha Z        PSCENC =       264.60919239
  Ewald energy   TEWEN  =     -4637.17866551
  -Hartree energ DENC   =     -1525.96151429
  -exchange      EXHF   =         0.00000000
  -V(xc)+E(xc)   XCENC  =       220.35091225
  PAW double counting   =      5342.82997221    -5294.64097593
  entropy T*S    EENTRO =        -0.00040526
  eigenvalues    EBANDS =      -500.56017236
  atomic energy  EATOM  =      6107.80840369
  Solvation  Ediel_sol  =         0.00000000
  ---------------------------------------------------
  free energy    TOTEN  =       -22.74325280 eV

  energy without entropy =      -22.74284754  energy(sigma->0) =      -22.74305017


--------------------------------------------------------------------------------------------------------




--------------------------------------- Iteration      1(   7)  ---------------------------------------


    POTLOK:  cpu time      0.0342: real time      0.0342
    SETDIJ:  cpu time      0.4029: real time      0.4031
     EDDAV:  cpu time      2.9034: real time      2.9048
       DOS:  cpu time      0.0006: real time      0.0006
    CHARGE:  cpu time      0.2346: real time      0.2346
    MIXING:  cpu time      0.0011: real time      0.0011
    --------------------------------------------
      LOOP:  cpu time      3.5768: real time      3.5784

 eigenvalue-minimisations  :  7024
 total energy-change (2. order) : 0.5557316E+00  (-0.2536803E+00)
 number of electron      44.0000001 magnetization      -0.0673727
 augmentation part       16.5223828 magnetization      -0.0980522

 Broyden mixing:
  rms(total) = 0.36653E+00    rms(broyden)= 0.36649E+00
  rms(prec ) = 0.44143E+00
  weight for this iteration     100.00

 eigenvalues of (default mixing * dielectric matrix)
  average eigenvalue GAMMA=   0.8935
  1.0938  0.6931

 Free energy of the ion-electron system (eV)
  ---------------------------------------------------
  alpha Z        PSCENC =       264.60919239
  Ewald energy   TEWEN  =     -4637.17866551
  -Hartree energ DENC   =     -1539.26981852
  -exchange      EXHF   =         0.00000000
  -V(xc)+E(xc)   XCENC  =       220.55546027
  PAW double counting   =      5461.81948973    -5413.00963366
  entropy T*S    EENTRO =        -0.00056179
  eigenvalues    EBANDS =      -487.52138775
  atomic energy  EATOM  =      6107.80840369
  Solvation  Ediel_sol  =         0.00000000
  ---------------------------------------------------
  free energy    TOTEN  =       -22.18752115 eV

  energy without entropy =      -22.18695936  energy(sigma->0) =      -22.18724025


--------------------------------------------------------------------------------------------------------




--------------------------------------- Iteration      1(   8)  ---------------------------------------


    POTLOK:  cpu time      0.0340: real time      0.0341
    SETDIJ:  cpu time      0.4037: real time      0.4037
     EDDAV:  cpu time      3.1918: real time      3.3375
       DOS:  cpu time      0.0006: real time      0.0006
    CHARGE:  cpu time      0.2357: real time      0.2809
    MIXING:  cpu time      0.0010: real time      0.0010
    --------------------------------------------
      LOOP:  cpu time      3.8667: real time      4.0579

 eigenvalue-minimisations  :  7100
 total energy-change (2. order) :-0.1892312E-01  (-0.4111417E-01)
 number of electron      44.0000001 magnetization      -0.0560161
 augmentation part       16.5685619 magnetization      -0.0518804

 Broyden mixing:
  rms(total) = 0.15068E+00    rms(broyden)= 0.15065E+00
  rms(prec ) = 0.19250E+00
  weight for this iteration     100.00

 eigenvalues of (default mixing * dielectric matrix)
  average eigenvalue GAMMA=   1.1649
  0.7223  0.9779  1.7944

 Free energy of the ion-electron system (eV)
  ---------------------------------------------------
  alpha Z        PSCENC =       264.60919239
  Ewald energy   TEWEN  =     -4637.17866551
  -Hartree energ DENC   =     -1535.10333719
  -exchange      EXHF   =         0.00000000
  -V(xc)+E(xc)   XCENC  =       220.37637852
  PAW double counting   =      5595.32638654    -5547.65484804
  entropy T*S    EENTRO =        -0.00132386
  eigenvalues    EBANDS =      -490.38863081
  atomic energy  EATOM  =      6107.80840369
  Solvation  Ediel_sol  =         0.00000000
  ---------------------------------------------------
  free energy    TOTEN  =       -22.20644427 eV

  energy without entropy =      -22.20512040  energy(sigma->0) =      -22.20578234


--------------------------------------------------------------------------------------------------------




--------------------------------------- Iteration      1(   9)  ---------------------------------------


    POTLOK:  cpu time      0.0338: real time      0.0339
    SETDIJ:  cpu time      0.3576: real time      0.4042
     EDDAV:  cpu time      2.5368: real time      2.5982
       DOS:  cpu time      0.0006: real time      0.0005
    CHARGE:  cpu time      0.2356: real time      0.2404
    MIXING:  cpu time      0.0010: real time      0.0010
    --------------------------------------------
      LOOP:  cpu time      3.1654: real time      3.2783

 eigenvalue-minimisations  :  7356
 total energy-change (2. order) : 0.4465475E-02  (-0.2425657E-02)
 number of electron      44.0000001 magnetization      -0.0133474
 augmentation part       16.5746127 magnetization      -0.0049641

 Broyden mixing:
  rms(total) = 0.44265E-01    rms(broyden)= 0.44255E-01
  rms(prec ) = 0.52468E-01
  weight for this iteration     100.00

 eigenvalues of (default mixing * dielectric matrix)
  average eigenvalue GAMMA=   1.1533
  2.1906  0.9186  0.7519  0.7519

 Free energy of the ion-electron system (eV)
  ---------------------------------------------------
  alpha Z        PSCENC =       264.60919239
  Ewald energy   TEWEN  =     -4637.17866551
  -Hartree energ DENC   =     -1536.05836380
  -exchange      EXHF   =         0.00000000
  -V(xc)+E(xc)   XCENC  =       220.47300602
  PAW double counting   =      5677.27939398    -5630.11921333
  entropy T*S    EENTRO =        -0.00143490
  eigenvalues    EBANDS =      -489.01429734
  atomic energy  EATOM  =      6107.80840369
  Solvation  Ediel_sol  =         0.00000000
  ---------------------------------------------------
  free energy    TOTEN  =       -22.20197879 eV

  energy without entropy =      -22.20054389  energy(sigma->0) =      -22.20126134


--------------------------------------------------------------------------------------------------------




--------------------------------------- Iteration      1(  10)  ---------------------------------------


    POTLOK:  cpu time      0.0341: real time      0.0343
    SETDIJ:  cpu time      0.3993: real time      0.4039
     EDDAV:  cpu time      2.4584: real time      2.5120
       DOS:  cpu time      0.0005: real time      0.0005
    CHARGE:  cpu time      0.2355: real time      0.2357
    MIXING:  cpu time      0.0011: real time      0.0011
    --------------------------------------------
      LOOP:  cpu time      3.1289: real time      3.1875

 eigenvalue-minimisations  :  7136
 total energy-change (2. order) :-0.1403747E-02  (-0.2605918E-03)
 number of electron      44.0000001 magnetization       0.0043089
 augmentation part       16.5683896 magnetization       0.0055516

 Broyden mixing:
  rms(total) = 0.17618E-01    rms(broyden)= 0.17617E-01
  rms(prec ) = 0.20363E-01
  weight for this iteration     100.00

 eigenvalues of (default mixing * dielectric matrix)
  average eigenvalue GAMMA=   1.1870
  2.4851  1.0265  1.0265  0.6984  0.6984

 Free energy of the ion-electron system (eV)
  ---------------------------------------------------
  alpha Z        PSCENC =       264.60919239
  Ewald energy   TEWEN  =     -4637.17866551
  -Hartree energ DENC   =     -1536.56512448
  -exchange      EXHF   =         0.00000000
  -V(xc)+E(xc)   XCENC  =       220.49111679
  PAW double counting   =      5705.86115897    -5658.73906072
  entropy T*S    EENTRO =        -0.00145787
  eigenvalues    EBANDS =      -488.48894579
  atomic energy  EATOM  =      6107.80840369
  Solvation  Ediel_sol  =         0.00000000
  ---------------------------------------------------
  free energy    TOTEN  =       -22.20338254 eV

  energy without entropy =      -22.20192467  energy(sigma->0) =      -22.20265360


--------------------------------------------------------------------------------------------------------




--------------------------------------- Iteration      1(  11)  ---------------------------------------


    POTLOK:  cpu time      0.0340: real time      0.0341
    SETDIJ:  cpu time      0.3978: real time      0.4046
     EDDAV:  cpu time      2.5228: real time      2.6509
       DOS:  cpu time      0.0006: real time      0.0006
    CHARGE:  cpu time      0.2345: real time      0.2346
    MIXING:  cpu time      0.0011: real time      0.0011
    --------------------------------------------
      LOOP:  cpu time      3.1908: real time      3.3259

 eigenvalue-minimisations  :  7352
 total energy-change (2. order) :-0.1890548E-03  (-0.3627290E-04)
 number of electron      44.0000001 magnetization       0.0027815
 augmentation part       16.5681941 magnetization       0.0029269

 Broyden mixing:
  rms(total) = 0.86767E-02    rms(broyden)= 0.86761E-02
  rms(prec ) = 0.10141E-01
  weight for this iteration     100.00

 eigenvalues of (default mixing * dielectric matrix)
  average eigenvalue GAMMA=   1.1768
  2.4545  1.3601  1.0299  0.7922  0.7922  0.6319

 Free energy of the ion-electron system (eV)
  ---------------------------------------------------
  alpha Z        PSCENC =       264.60919239
  Ewald energy   TEWEN  =     -4637.17866551
  -Hartree energ DENC   =     -1536.70242614
  -exchange      EXHF   =         0.00000000
  -V(xc)+E(xc)   XCENC  =       220.49485315
  PAW double counting   =      5714.20557537    -5667.05922822
  entropy T*S    EENTRO =        -0.00143677
  eigenvalues    EBANDS =      -488.37983956
  atomic energy  EATOM  =      6107.80840369
  Solvation  Ediel_sol  =         0.00000000
  ---------------------------------------------------
  free energy    TOTEN  =       -22.20357159 eV

  energy without entropy =      -22.20213483  energy(sigma->0) =      -22.20285321


--------------------------------------------------------------------------------------------------------




--------------------------------------- Iteration      1(  12)  ---------------------------------------


    POTLOK:  cpu time      0.0426: real time      0.0881
    SETDIJ:  cpu time      0.3592: real time      0.4055
     EDDAV:  cpu time      2.4927: real time      2.5322
       DOS:  cpu time      0.0005: real time      0.0005
    CHARGE:  cpu time      0.2323: real time      0.2323
    MIXING:  cpu time      0.0012: real time      0.0012
    --------------------------------------------
      LOOP:  cpu time      3.1285: real time      3.2599

 eigenvalue-minimisations  :  7168
 total energy-change (2. order) :-0.1125193E-04  (-0.5191616E-05)
 number of electron      44.0000001 magnetization      -0.0002149
 augmentation part       16.5683985 magnetization      -0.0004827

 Broyden mixing:
  rms(total) = 0.20883E-02    rms(broyden)= 0.20878E-02
  rms(prec ) = 0.28840E-02
  weight for this iteration     100.00

 eigenvalues of (default mixing * dielectric matrix)
  average eigenvalue GAMMA=   1.2069
  2.4861  1.7696  1.0184  1.0184  0.7641  0.7641  0.6278

 Free energy of the ion-electron system (eV)
  ---------------------------------------------------
  alpha Z        PSCENC =       264.60919239
  Ewald energy   TEWEN  =     -4637.17866551
  -Hartree energ DENC   =     -1536.79504830
  -exchange      EXHF   =         0.00000000
  -V(xc)+E(xc)   XCENC  =       220.49814544
  PAW double counting   =      5717.62951056    -5670.45644600
  entropy T*S    EENTRO =        -0.00141741
  eigenvalues    EBANDS =      -488.31725771
  atomic energy  EATOM  =      6107.80840369
  Solvation  Ediel_sol  =         0.00000000
  ---------------------------------------------------
  free energy    TOTEN  =       -22.20358285 eV

  energy without entropy =      -22.20216544  energy(sigma->0) =      -22.20287414


--------------------------------------------------------------------------------------------------------




--------------------------------------- Iteration      1(  13)  ---------------------------------------


    POTLOK:  cpu time      0.0338: real time      0.0339
    SETDIJ:  cpu time      0.4031: real time      0.4033
     EDDAV:  cpu time      2.5416: real time      2.5432
       DOS:  cpu time      0.0005: real time      0.0005
    CHARGE:  cpu time      0.2642: real time      0.2647
    MIXING:  cpu time      0.0012: real time      0.0012
    --------------------------------------------
      LOOP:  cpu time      3.2444: real time      3.2467

 eigenvalue-minimisations  :  7192
 total energy-change (2. order) :-0.1002767E-04  (-0.1340415E-05)
 number of electron      44.0000001 magnetization      -0.0001448
 augmentation part       16.5683836 magnetization      -0.0002676

 Broyden mixing:
  rms(total) = 0.84468E-03    rms(broyden)= 0.84453E-03
  rms(prec ) = 0.11589E-02
  weight for this iteration     100.00

 eigenvalues of (default mixing * dielectric matrix)
  average eigenvalue GAMMA=   1.2140
  2.5840  2.0252  1.1102  1.1102  0.7717  0.7717  0.7116  0.6272

 Free energy of the ion-electron system (eV)
  ---------------------------------------------------
  alpha Z        PSCENC =       264.60919239
  Ewald energy   TEWEN  =     -4637.17866551
  -Hartree energ DENC   =     -1536.84875447
  -exchange      EXHF   =         0.00000000
  -V(xc)+E(xc)   XCENC  =       220.50036051
  PAW double counting   =      5718.26836504    -5671.08228902
  entropy T*S    EENTRO =        -0.00141280
  eigenvalues    EBANDS =      -488.27879272
  atomic energy  EATOM  =      6107.80840369
  Solvation  Ediel_sol  =         0.00000000
  ---------------------------------------------------
  free energy    TOTEN  =       -22.20359287 eV

  energy without entropy =      -22.20218007  energy(sigma->0) =      -22.20288647


--------------------------------------------------------------------------------------------------------




--------------------------------------- Iteration      1(  14)  ---------------------------------------


    POTLOK:  cpu time      0.0335: real time      0.0336
    SETDIJ:  cpu time      0.4022: real time      0.4025
     EDDAV:  cpu time      2.9006: real time      2.9035
       DOS:  cpu time      0.0005: real time      0.0005
    CHARGE:  cpu time      0.2332: real time      0.2333
    MIXING:  cpu time      0.0012: real time      0.0012
    --------------------------------------------
      LOOP:  cpu time      3.5713: real time      3.5746

 eigenvalue-minimisations  :  5136
 total energy-change (2. order) :-0.1415457E-05  (-0.1724541E-06)
 number of electron      44.0000001 magnetization       0.0000626
 augmentation part       16.5683654 magnetization       0.0000836

 Broyden mixing:
  rms(total) = 0.33210E-03    rms(broyden)= 0.33207E-03
  rms(prec ) = 0.53704E-03
  weight for this iteration     100.00

 eigenvalues of (default mixing * dielectric matrix)
  average eigenvalue GAMMA=   1.2247
  2.5904  2.0854  1.2676  1.0953  1.0953  0.7838  0.7838  0.6968  0.6238

 Free energy of the ion-electron system (eV)
  ---------------------------------------------------
  alpha Z        PSCENC =       264.60919239
  Ewald energy   TEWEN  =     -4637.17866551
  -Hartree energ DENC   =     -1536.86518084
  -exchange      EXHF   =         0.00000000
  -V(xc)+E(xc)   XCENC  =       220.50100456
  PAW double counting   =      5718.21340353    -5671.02353533
  entropy T*S    EENTRO =        -0.00141318
  eigenvalues    EBANDS =      -488.26680360
  atomic energy  EATOM  =      6107.80840369
  Solvation  Ediel_sol  =         0.00000000
  ---------------------------------------------------
  free energy    TOTEN  =       -22.20359429 eV

  energy without entropy =      -22.20218111  energy(sigma->0) =      -22.20288770


--------------------------------------------------------------------------------------------------------




--------------------------------------- Iteration      1(  15)  ---------------------------------------


    POTLOK:  cpu time      0.0337: real time      0.0338
    SETDIJ:  cpu time      0.4029: real time      0.4029
     EDDAV:  cpu time      1.9027: real time      1.9229
       DOS:  cpu time      0.0005: real time      0.0005
    --------------------------------------------
      LOOP:  cpu time      2.3398: real time      2.3602

 eigenvalue-minimisations  :  4272
 total energy-change (2. order) :-0.2199822E-06  (-0.5533749E-07)
 number of electron      44.0000001 magnetization       0.0000626
 augmentation part       16.5683654 magnetization       0.0000836

 Free energy of the ion-electron system (eV)
  ---------------------------------------------------
  alpha Z        PSCENC =       264.60919239
  Ewald energy   TEWEN  =     -4637.17866551
  -Hartree energ DENC   =     -1536.87156520
  -exchange      EXHF   =         0.00000000
  -V(xc)+E(xc)   XCENC  =       220.50121482
  PAW double counting   =      5718.02263518    -5670.83150092
  entropy T*S    EENTRO =        -0.00141463
  eigenvalues    EBANDS =      -488.26189433
  atomic energy  EATOM  =      6107.80840369
  Solvation  Ediel_sol  =         0.00000000
  ---------------------------------------------------
  free energy    TOTEN  =       -22.20359451 eV

  energy without entropy =      -22.20217988  energy(sigma->0) =      -22.20288719


--------------------------------------------------------------------------------------------------------




 average (electrostatic) potential at core
  the test charge radii are     1.0504  0.7215
  (the norm of the test charge is              1.0000)
       1 -77.8254       2 -77.8254       3 -70.0142       4 -70.0142
 
 
 
 E-fermi :   6.9039     XC(G=0): -11.8671     alpha+bet :-12.7273

 val. band max:        6.8984209202   @ k =   0.5000   0.2500   0.0000
 cond. band min:       6.9408070731   @ k =   0.5000   0.5000   0.3333
 fundamental gap:      0.0423861530
 Fermi energy:         6.9039216434

 spin component 1

 k-point     1 :       0.0000    0.0000    0.0000
  band No.  band energies     occupation 
      1     -43.9606      1.00000
      2     -43.9606      1.00000
      3     -43.9535      1.00000
      4     -43.9042      1.00000
      5     -43.1252      1.00000
      6     -43.1252      1.00000
      7     -13.4005      1.00000
      8     -12.1783      1.00000
      9      -1.9380      1.00000
     10       0.0005      1.00000
     11       0.0005      1.00000
     12       2.6116      1.00000
     13       2.8174      1.00000
     14       2.8174      1.00000
     15       3.1523      1.00000
     16       3.3491      1.00000
     17       3.6098      1.00000
     18       4.9132      1.00000
     19       4.9132      1.00000
     20       4.9685      1.00000
     21       5.1857      1.00000
     22       5.8397      1.00000
     23       8.7930      0.00000
     24       8.7930      0.00000
     25       9.0088      0.00000
     26      12.3681      0.00000
     27      15.2217      0.00000
     28      21.4425      0.00000

 k-point     2 :       0.1250    0.0000    0.0000
  band No.  band energies     occupation 
      1     -43.9732      1.00000
      2     -43.9599      1.00000
      3     -43.9503      1.00000
      4     -43.9048      1.00000
      5     -43.1347      1.00000
      6     -43.1243      1.00000
      7     -13.3215      1.00000
      8     -12.2099      1.00000
      9      -1.7733      1.00000
     10       0.0127      1.00000
     11       0.0453      1.00000
     12       1.8711      1.00000
     13       2.6734      1.00000
     14       2.8662      1.00000
     15       3.2408      1.00000
     16       3.7271      1.00000
     17       3.7525      1.00000
     18       4.9060      1.00000
     19       4.9227      1.00000
     20       4.9274      1.00000
     21       5.2672      1.00000
     22       5.8702      1.00000
     23       8.5828      0.00000
     24       8.7318      0.00000
     25       9.3778      0.00000
     26      12.9330      0.00000
     27      14.9048      0.00000
     28      19.5342      0.00000

 k-point     3 :       0.2500    0.0000    0.0000
  band No.  band energies     occupation 
      1     -44.0034      1.00000
      2     -43.9582      1.00000
      3     -43.9418      1.00000
      4     -43.9068      1.00000
      5     -43.1575      1.00000
      6     -43.1223      1.00000
      7     -13.1258      1.00000
      8     -12.2862      1.00000
      9      -1.3563      1.00000
     10       0.1267      1.00000
     11       0.1570      1.00000
     12       0.8156      1.00000
     13       2.3746      1.00000
     14       2.7283      1.00000
     15       3.1190      1.00000
     16       4.0128      1.00000
     17       4.5248      1.00000
     18       4.7226      1.00000
     19       4.8849      1.00000
     20       5.1414      1.00000
     21       5.5166      1.00000
     22       5.9327      1.00000
     23       8.2550      0.00000
     24       8.5842      0.00000
     25      10.2226      0.00000
     26      13.9926      0.00000
     27      14.2710      0.00000
     28      17.1189      0.00000

 k-point     4 :       0.3750    0.0000    0.0000
  band No.  band energies     occupation 
      1     -44.0334      1.00000
      2     -43.9565      1.00000
      3     -43.9311      1.00000
      4     -43.9112      1.00000
      5     -43.1802      1.00000
      6     -43.1203      1.00000
      7     -12.9217      1.00000
      8     -12.3624      1.00000
      9      -0.9045      1.00000
     10      -0.0045      1.00000
     11       0.2744      1.00000
     12       0.4455      1.00000
     13       1.9497      1.00000
     14       2.1195      1.00000
     15       3.4436      1.00000
     16       4.2879      1.00000
     17       4.5174      1.00000
     18       4.8574      1.00000
     19       5.0396      1.00000
     20       5.3998      1.00000
     21       5.7429      1.00000
     22       6.2596      1.00000
     23       8.1058      0.00000
     24       8.4371      0.00000
     25      11.0718      0.00000
     26      12.9884      0.00000
     27      14.9835      0.00000
     28      15.9483      0.00000

 k-point     5 :       0.5000    0.0000    0.0000
  band No.  band energies     occupation 
      1     -44.0458      1.00000
      2     -43.9558      1.00000
      3     -43.9235      1.00000
      4     -43.9160      1.00000
      5     -43.1896      1.00000
      6     -43.1194      1.00000
      7     -12.8341      1.00000
      8     -12.3938      1.00000
      9      -0.6920      1.00000
     10      -0.3273      1.00000
     11       0.3250      1.00000
     12       0.8102      1.00000
     13       1.3969      1.00000
     14       2.0227      1.00000
     15       3.6186      1.00000
     16       4.4043      1.00000
     17       4.4346      1.00000
     18       4.8439      1.00000
     19       5.0905      1.00000
     20       5.4885      1.00000
     21       5.8298      1.00000
     22       6.6145      1.00000
     23       8.0929      0.00000
     24       8.3764      0.00000
     25      11.3281      0.00000
     26      13.0258      0.00000
     27      13.6590      0.00000
     28      17.2897      0.00000

 k-point     6 :       0.1250    0.1250    0.0000
  band No.  band energies     occupation 
      1     -43.9744      1.00000
      2     -43.9704      1.00000
      3     -43.9472      1.00000
      4     -43.9052      1.00000
      5     -43.1347      1.00000
      6     -43.1329      1.00000
      7     -13.2430      1.00000
      8     -12.2411      1.00000
      9      -1.6043      1.00000
     10      -0.0606      1.00000
     11       0.1761      1.00000
     12       1.8164      1.00000
     13       1.8527      1.00000
     14       3.2097      1.00000
     15       3.2884      1.00000
     16       3.8720      1.00000
     17       3.9519      1.00000
     18       4.6890      1.00000
     19       4.9476      1.00000
     20       5.0817      1.00000
     21       5.2472      1.00000
     22       5.9157      1.00000
     23       8.3687      0.00000
     24       8.6850      0.00000
     25       9.7293      0.00000
     26      13.4680      0.00000
     27      14.6913      0.00000
     28      19.5394      0.00000

 k-point     7 :       0.2500    0.1250    0.0000
  band No.  band energies     occupation 
      1     -44.0030      1.00000
      2     -43.9703      1.00000
      3     -43.9391      1.00000
      4     -43.9068      1.00000
      5     -43.1566      1.00000
      6     -43.1316      1.00000
      7     -13.0478      1.00000
      8     -12.3166      1.00000
      9      -1.1741      1.00000
     10      -0.0431      1.00000
     11       0.3833      1.00000
     12       0.7836      1.00000
     13       1.7177      1.00000
     14       2.8282      1.00000
     15       3.5041      1.00000
     16       4.1428      1.00000
     17       4.5268      1.00000
     18       4.6188      1.00000
     19       4.8214      1.00000
     20       5.2209      1.00000
     21       5.4819      1.00000
     22       5.9529      1.00000
     23       7.9830      0.00000
     24       8.6062      0.00000
     25      10.5281      0.00000
     26      14.0113      0.00000
     27      14.7546      0.00000
     28      17.3481      0.00000

 k-point     8 :       0.3750    0.1250    0.0000
  band No.  band energies     occupation 
      1     -44.0329      1.00000
      2     -43.9686      1.00000
      3     -43.9289      1.00000
      4     -43.9107      1.00000
      5     -43.1793      1.00000
      6     -43.1295      1.00000
      7     -12.8442      1.00000
      8     -12.3918      1.00000
      9      -0.7065      1.00000
     10      -0.0287      1.00000
     11       0.0867      1.00000
     12       0.6702      1.00000
     13       1.5806      1.00000
     14       2.1287      1.00000
     15       3.7389      1.00000
     16       4.3594      1.00000
     17       4.5627      1.00000
[...]
     27      16.8468      0.00000
     28      17.6881      0.00000

 k-point    57 :       0.5000    0.2500    0.5000
  band No.  band energies     occupation 
      1     -44.1136      1.00000
      2     -44.0679      1.00000
      3     -43.9901      1.00000
      4     -43.9878      1.00000
      5     -43.2657      1.00000
      6     -43.2308      1.00000
      7     -12.7376      1.00000
      8     -12.3863      1.00000
      9      -0.3027      1.00000
     10      -0.2075      1.00000
     11      -0.0668      1.00000
     12       0.7340      1.00000
     13       1.5064      1.00000
     14       1.8888      1.00000
     15       3.8662      1.00000
     16       4.0763      1.00000
     17       4.5066      1.00000
     18       4.6538      1.00000
     19       4.8036      1.00000
     20       4.9927      1.00000
     21       5.7014      1.00000
     22       6.4867      1.00000
     23       7.8774      0.00000
     24       8.0148      0.00000
     25      11.5266      0.00000
     26      13.1238      0.00000
     27      16.0796      0.00000
     28      17.1539      0.00000

 k-point    58 :       0.3750    0.3750    0.5000
  band No.  band energies     occupation 
      1     -44.0985      1.00000
      2     -44.0985      1.00000
      3     -43.9874      1.00000
      4     -43.9874      1.00000
      5     -43.2541      1.00000
      6     -43.2541      1.00000
      7     -12.5288      1.00000
      8     -12.5288      1.00000
      9      -0.1296      1.00000
     10      -0.1296      1.00000
     11       0.5657      1.00000
     12       0.5657      1.00000
     13       1.1045      1.00000
     14       1.1045      1.00000
     15       3.9548      1.00000
     16       3.9548      1.00000
     17       4.6653      1.00000
     18       4.6653      1.00000
     19       5.1748      1.00000
     20       5.1748      1.00000
     21       6.2417      1.00000
     22       6.2417      1.00000
     23       7.6522      0.00000
     24       7.6522      0.00000
     25      12.2864      0.00000
     26      12.2864      0.00000
     27      18.2024      0.00000
     28      18.2024      0.00000

 k-point    59 :       0.5000    0.3750    0.5000
  band No.  band energies     occupation 
      1     -44.1107      1.00000
      2     -44.0973      1.00000
      3     -43.9866      1.00000
      4     -43.9859      1.00000
      5     -43.2634      1.00000
      6     -43.2532      1.00000
      7     -12.5532      1.00000
      8     -12.4488      1.00000
      9      -0.0181      1.00000
     10       0.2056      1.00000
     11       0.2508      1.00000
     12       0.5419      1.00000
     13       0.7533      1.00000
     14       1.2136      1.00000
     15       3.8566      1.00000
     16       3.8619      1.00000
     17       4.8397      1.00000
     18       4.8744      1.00000
     19       4.9901      1.00000
     20       5.1527      1.00000
     21       6.3214      1.00000
     22       6.6819      0.99964
     23       7.6478      0.00000
     24       7.6554      0.00000
     25      11.8852      0.00000
     26      12.4498      0.00000
     27      17.6453      0.00000
     28      18.1087      0.00000

 k-point    60 :       0.5000    0.5000    0.5000
  band No.  band energies     occupation 
      1     -44.1095      1.00000
      2     -44.1095      1.00000
      3     -43.9851      1.00000
      4     -43.9851      1.00000
      5     -43.2624      1.00000
      6     -43.2624      1.00000
      7     -12.4746      1.00000
      8     -12.4746      1.00000
      9       0.4002      1.00000
     10       0.4002      1.00000
     11       0.4669      1.00000
     12       0.4669      1.00000
     13       0.5103      1.00000
     14       0.5103      1.00000
     15       3.7674      1.00000
     16       3.7674      1.00000
     17       4.9056      1.00000
     18       4.9056      1.00000
     19       5.2272      1.00000
     20       5.2272      1.00000
     21       6.7508      0.92462
     22       6.7508      0.92462
     23       7.5255      0.00000
     24       7.5255      0.00000
     25      12.0572      0.00000
     26      12.0572      0.00000
     27      18.4939      0.00000
     28      18.4939      0.00000


--------------------------------------------------------------------------------------------------------


 soft charge-density along one line, spin component            1
         0         1         2         3         4         5         6         7         8         9
 total charge-density along one line
 
 soft charge-density along one line, spin component            2
         0         1         2         3         4         5         6         7         8         9
 total charge-density along one line
 
 pseudopotential strength for first ion, spin component:            1
-38.837  -0.000  -0.000   9.127   0.000   0.000   0.000  -0.000
 -0.000 -39.246  -0.000   0.000   9.359   0.000   0.000   0.000
 -0.000  -0.000 -39.271   0.000   0.000   9.376   0.000   0.000
  9.127   0.000   0.000   7.639  -0.000  -0.000  -0.000   0.000
  0.000   9.359   0.000  -0.000   7.585  -0.000  -0.000  -0.000
  0.000   0.000   9.376  -0.000  -0.000   7.583  -0.000  -0.000
  0.000   0.000   0.000  -0.000  -0.000  -0.000  -3.789  -0.000
 -0.000   0.000   0.000   0.000  -0.000  -0.000  -0.000  -3.768
 -0.000  -0.000  -0.000   0.000   0.000   0.000   0.000   0.000
  0.000   0.000  -0.000  -0.000  -0.000   0.000  -0.000   0.000
  0.000   0.000   0.000  -0.000  -0.000  -0.000  -0.000   0.000
  0.000   0.000   0.000  -0.000  -0.000  -0.000  -3.604  -0.000
 -0.000   0.000   0.000   0.000  -0.000  -0.000  -0.000  -3.582
 -0.000  -0.000  -0.000   0.000   0.000   0.000   0.000   0.000
  0.000   0.000  -0.000  -0.000  -0.000   0.000  -0.000   0.000
  0.000   0.000   0.000  -0.000  -0.000  -0.000  -0.000   0.000
 -0.000   0.000  -0.000   0.000   0.000  -0.000   0.000   0.000
 -0.000   0.000  -0.000   0.000   0.000  -0.000   0.000   0.000
 pseudopotential strength for first ion, spin component:            2
-38.837  -0.000  -0.000   9.127   0.000   0.000   0.000  -0.000
 -0.000 -39.246  -0.000   0.000   9.359   0.000  -0.000   0.000
 -0.000  -0.000 -39.271   0.000   0.000   9.376   0.000  -0.000
  9.127   0.000   0.000   7.639  -0.000  -0.000  -0.000   0.000
  0.000   9.359   0.000  -0.000   7.585  -0.000   0.000  -0.000
  0.000   0.000   9.376  -0.000  -0.000   7.583  -0.000   0.000
  0.000  -0.000   0.000  -0.000   0.000  -0.000  -3.789  -0.000
 -0.000   0.000  -0.000   0.000  -0.000   0.000  -0.000  -3.768
 -0.000  -0.000  -0.000   0.000   0.000   0.000   0.000   0.000
 -0.000   0.000  -0.000   0.000  -0.000   0.000  -0.000   0.000
  0.000   0.000   0.000  -0.000   0.000  -0.000  -0.000   0.000
  0.000  -0.000   0.000  -0.000   0.000  -0.000  -3.604  -0.000
 -0.000   0.000  -0.000   0.000  -0.000   0.000  -0.000  -3.582
 -0.000  -0.000  -0.000   0.000   0.000   0.000   0.000   0.000
 -0.000   0.000  -0.000   0.000  -0.000   0.000  -0.000   0.000
  0.000   0.000   0.000  -0.000   0.000  -0.000  -0.000   0.000
 -0.000   0.000  -0.000   0.000   0.000  -0.000   0.000   0.000
 -0.000   0.000  -0.000   0.000   0.000  -0.000   0.000   0.000
 total augmentation occupancy for first ion, spin component:            1
  1.998   0.000   0.000  -0.011  -0.000  -0.000   0.000   0.000   0.000   0.000   0.000   0.000   0.000   0.000   0.000   0.000
  0.000   1.998   0.000  -0.000  -0.020  -0.000   0.000   0.000   0.000   0.000   0.000   0.000   0.000   0.000   0.000   0.000
  0.000   0.000   1.998  -0.000  -0.000  -0.021   0.000   0.000   0.000   0.000   0.000   0.000   0.000   0.000   0.000   0.000
 -0.011  -0.000  -0.000   0.044   0.000   0.000   0.000   0.000   0.000   0.000   0.000   0.000   0.000   0.000   0.000   0.000
 -0.000  -0.020  -0.000   0.000   0.133   0.000   0.000   0.000   0.000   0.000   0.000   0.000   0.000   0.000   0.000   0.000
 -0.000  -0.000  -0.021   0.000   0.000   0.155   0.000   0.000   0.000   0.000   0.000   0.000   0.000   0.000   0.000   0.000
  0.000   0.000   0.000   0.000   0.000   0.000   2.203   0.000  -0.000   0.000  -0.000  -0.311  -0.000   0.000  -0.000   0.000
  0.000   0.000   0.000   0.000   0.000   0.000   0.000   2.139   0.000   0.000  -0.000  -0.000  -0.268   0.000  -0.000   0.000
  0.000   0.000   0.000   0.000   0.000   0.000  -0.000   0.000   2.366   0.000   0.173   0.000   0.000  -0.538  -0.000  -0.120
  0.000   0.000   0.000   0.000   0.000   0.000   0.000   0.000   0.000   4.777   0.000  -0.000  -0.000  -0.000  -2.724  -0.000
  0.000   0.000   0.000   0.000   0.000   0.000  -0.000  -0.000   0.173   0.000   3.065   0.000   0.000  -0.115  -0.000  -1.133
  0.000   0.000   0.000   0.000   0.000   0.000  -0.311  -0.000   0.000  -0.000   0.000   0.365   0.000  -0.000   0.000  -0.000
  0.000   0.000   0.000   0.000   0.000   0.000  -0.000  -0.268   0.000  -0.000   0.000   0.000   0.362   0.000   0.000  -0.000
  0.000   0.000   0.000   0.000   0.000   0.000   0.000   0.000  -0.538  -0.000  -0.115  -0.000   0.000   0.663   0.000  -0.013
  0.000   0.000   0.000   0.000   0.000   0.000  -0.000  -0.000  -0.000  -2.724  -0.000   0.000   0.000   0.000   1.815   0.000
  0.000   0.000   0.000   0.000   0.000   0.000   0.000   0.000  -0.120  -0.000  -1.133  -0.000  -0.000  -0.013   0.000   1.058
  0.000   0.000   0.000   0.000   0.000   0.000  -0.000  -0.000   0.072   0.000   0.402   0.000   0.000  -0.276  -0.000  -0.826
  0.000   0.000   0.000   0.000   0.000   0.000  -0.000  -0.000   0.022  -0.000   0.001  -0.000  -0.000   0.023   0.000   0.088
 total augmentation occupancy for first ion, spin component:            2
 -0.000  -0.000  -0.000  -0.000  -0.000  -0.000   0.000   0.000   0.000   0.000   0.000   0.000   0.000   0.000   0.000   0.000
 -0.000  -0.000   0.000  -0.000  -0.000  -0.000   0.000   0.000   0.000   0.000   0.000   0.000   0.000   0.000   0.000   0.000
 -0.000   0.000   0.000  -0.000   0.000   0.000   0.000   0.000   0.000   0.000   0.000   0.000   0.000   0.000   0.000   0.000
 -0.000  -0.000  -0.000  -0.000  -0.000  -0.000   0.000   0.000   0.000   0.000   0.000   0.000   0.000   0.000   0.000   0.000
 -0.000  -0.000   0.000  -0.000  -0.000   0.000   0.000   0.000   0.000   0.000   0.000   0.000   0.000   0.000   0.000   0.000
 -0.000  -0.000   0.000  -0.000   0.000  -0.000   0.000   0.000   0.000   0.000   0.000   0.000   0.000   0.000   0.000   0.000
  0.000   0.000   0.000   0.000   0.000   0.000  -0.000  -0.000   0.000  -0.000  -0.000   0.000   0.000  -0.000   0.000   0.000
  0.000   0.000   0.000   0.000   0.000   0.000  -0.000   0.000   0.000   0.000   0.000   0.000  -0.000  -0.000  -0.000  -0.000
  0.000   0.000   0.000   0.000   0.000   0.000   0.000   0.000  -0.000  -0.000  -0.000  -0.000  -0.000   0.000   0.000   0.000
  0.000   0.000   0.000   0.000   0.000   0.000  -0.000   0.000  -0.000  -0.000   0.000   0.000  -0.000   0.000   0.000  -0.000
  0.000   0.000   0.000   0.000   0.000   0.000  -0.000   0.000  -0.000   0.000  -0.000   0.000   0.000   0.000  -0.000  -0.000
  0.000   0.000   0.000   0.000   0.000   0.000   0.000   0.000  -0.000   0.000   0.000   0.000   0.000   0.000   0.000  -0.000
  0.000   0.000   0.000   0.000   0.000   0.000   0.000  -0.000  -0.000  -0.000   0.000   0.000  -0.000  -0.000  -0.000   0.000
  0.000   0.000   0.000   0.000   0.000   0.000  -0.000  -0.000   0.000   0.000   0.000   0.000  -0.000  -0.000  -0.000  -0.000
  0.000   0.000   0.000   0.000   0.000   0.000   0.000  -0.000   0.000   0.000  -0.000   0.000  -0.000  -0.000  -0.000   0.000
  0.000   0.000   0.000   0.000   0.000   0.000   0.000  -0.000   0.000  -0.000  -0.000  -0.000   0.000  -0.000   0.000   0.000
  0.000   0.000   0.000   0.000   0.000   0.000   0.000   0.000  -0.000   0.000  -0.000   0.000   0.000   0.000  -0.000  -0.000
  0.000   0.000   0.000   0.000   0.000   0.000  -0.000  -0.000   0.000  -0.000   0.000  -0.000   0.000   0.000  -0.000   0.000


------------------------ aborting loop because EDIFF is reached ----------------------------------------





 total charge

# of ion       s       p       d       tot
------------------------------------------
    1        0.297   6.187   7.922  14.406
    2        0.297   6.187   7.922  14.406
    3        1.563   3.385   0.000   4.948
    4        1.563   3.385   0.000   4.948
--------------------------------------------------
tot          3.718  19.145  15.844  38.707



 magnetization (x)

# of ion       s       p       d       tot
------------------------------------------
    1       -0.000   0.000  -0.000  -0.000
    2       -0.000   0.000  -0.000  -0.000
    3        0.000   0.000   0.000   0.000
    4        0.000   0.000   0.000   0.000
--------------------------------------------------
tot          0.000   0.000  -0.000  -0.000
 
    CHARGE:  cpu time      0.2297: real time      0.2298
    FORLOC:  cpu time      0.0010: real time      0.0010
    FORNL :  cpu time      0.3857: real time      0.3860
    STRESS:  cpu time      1.2791: real time      1.2791
    FORCOR:  cpu time      0.0339: real time      0.0339
    FORHAR:  cpu time      0.0040: real time      0.0040
    MIXING:  cpu time      0.0011: real time      0.0011
    OFIELD:  cpu time      0.0000: real time      0.0000

 ---------------------------------------------------------------------------------------------

         DFTD3 V3.0 Rev 1        
 Edisp (eV)   -1.23591

 E6    (eV) :    -0.7398
 E8    (eV) :    -0.4961
 % E8        : 40.14
    FORVDW:  cpu time      0.0058: real time      0.0058

  FORCE on cell =-STRESS in cart. coord.  units (eV):
  Direction    XX          YY          ZZ          XY          YZ          ZX
  --------------------------------------------------------------------------------------
  Alpha Z   262.91805   262.91805   262.91805
  Ewald   -1652.34061 -1652.34061 -1324.00217    -0.00000     0.00000     0.00000
  Hartree   452.91768   452.91768   635.16604     0.00000    -0.00000    -0.00000
  E(xc)    -241.07322  -241.07322  -240.61987     0.00000     0.00000     0.00000
  Local     310.30100   310.30100  -171.99077    -0.00000     0.00000    -0.00000
  n-local  -102.57720   -99.87662  -103.49177     0.27318     0.34541     0.12999
  augment   259.70253   259.70253   250.07509    -0.00000     0.00000     0.00000
  Kinetic   709.36303   710.76251   693.17473     1.05275    -0.03401     0.79322
  Fock        0.00000     0.00000     0.00000     0.00000     0.00000     0.00000
  vdW        -1.25733    -1.25733    -1.21384    -0.00000    -0.00000    -0.00000
  -------------------------------------------------------------------------------------
  Total       0.00396     0.00396     0.01550     0.00000     0.00000     0.00000
  in kB       0.12602     0.12602     0.49257     0.00000     0.00000     0.00000
  external pressure =        0.25 kB  Pullay stress =        0.00 kB


 VOLUME and BASIS-vectors are now :
 -----------------------------------------------------------------------------
  energy-cutoff  :      520.00
  volume of cell :       50.41
      direct lattice vectors                 reciprocal lattice vectors
     3.053592709  0.000000000  0.000000000     0.327483098 -0.000000000  0.000000000
     0.000000000  3.053592709  0.000000000    -0.000000000  0.327483098  0.000000000
    -0.000000000 -0.000000000  5.405846123    -0.000000000 -0.000000000  0.184984918

  length of vectors
     3.053592709  3.053592709  5.405846123     0.327483098  0.327483098  0.184984918


 FORCES acting on ions
    electron-ion (+dipol)            ewald-force                    non-local-force                 convergence-correction
 -----------------------------------------------------------------------------------------------
   0.608E-12 -.875E-14 -.679E-11   0.351E-14 0.545E-15 0.568E-13   0.711E-25 0.000E+00 0.000E+00   0.415E-13 -.961E-14 0.110E-12
   0.163E-13 0.623E-12 -.173E-12   -.287E-14 -.129E-13 0.000E+00   0.226E-24 0.000E+00 0.000E+00   -.198E-14 0.389E-13 0.835E-13
   -.177E-13 -.261E-12 -.799E-12   0.368E-13 -.695E-14 -.494E-13   -.272E-16 0.000E+00 0.139E-15   -.115E-12 0.719E-13 0.324E-12
   -.267E-13 0.149E-12 0.883E-12   -.245E-13 0.140E-13 -.749E-14   0.282E-16 0.000E+00 -.250E-15   0.132E-12 -.143E-12 -.291E-12
 -----------------------------------------------------------------------------------------------
   0.580E-12 0.502E-12 -.688E-11   0.129E-13 -.527E-14 -.438E-18   0.912E-18 0.000E+00 -.111E-15   0.563E-13 -.421E-13 0.226E-12
 
 
 POSITION                                       TOTAL-FORCE (eV/Angst)
 -----------------------------------------------------------------------------------
      1.52680      0.00000      2.70292         0.000000      0.000000     -0.000000
      0.00000      1.52680      0.00000         0.000000      0.000000     -0.000000
     -0.00000     -0.00000      4.05438        -0.000000     -0.000000      0.000000
     -0.00000     -0.00000      1.35146        -0.000000      0.000000     -0.000000
 -----------------------------------------------------------------------------------
    total drift:                                0.000000      0.000000     -0.000000


--------------------------------------------------------------------------------------------------------



  FREE ENERGIE OF THE ION-ELECTRON SYSTEM (eV)
  ---------------------------------------------------
  free  energy   TOTEN  =       -23.44942482 eV

  energy  without entropy=      -23.44785863  energy(sigma->0) =      -23.44864172
 
 d Force = 0.0000000E+00[ 0.000E+00, 0.000E+00]  d Energy = 0.6224261E-04-0.622E-04
 d Force = 0.0000000E+00[ 0.000E+00, 0.000E+00]  d Ewald  = 0.1712248E+01-0.171E+01


--------------------------------------------------------------------------------------------------------


    POTLOK:  cpu time      0.4388: real time      0.4389


--------------------------------------------------------------------------------------------------------




--------------------------------------------------------------------------------------------------------


  
 reached required accuracy - stopping structural energy minimisation
     LOOP+:  cpu time     20.8321: real time     20.8403
    4ORBIT:  cpu time      0.0000: real time      0.0000



 total charge

# of ion       s       p       d       tot
------------------------------------------
    1        0.297   6.187   7.922  14.406
    2        0.297   6.187   7.922  14.406
    3        1.563   3.385   0.000   4.948
    4        1.563   3.385   0.000   4.948
--------------------------------------------------
tot          3.718  19.145  15.844  38.707



 magnetization (x)

# of ion       s       p       d       tot
------------------------------------------
    1       -0.000   0.000  -0.000  -0.000
    2       -0.000   0.000  -0.000  -0.000
    3        0.000   0.000   0.000   0.000
    4        0.000   0.000   0.000   0.000
--------------------------------------------------
tot          0.000   0.000  -0.000  -0.000
 

 total amount of memory used by VASP MPI-rank0    85574. kBytes
=======================================================================

   base      :      30000. kBytes
   nonl-proj :      23795. kBytes
   fftplans  :       6896. kBytes
   grid      :       5621. kBytes
   one-center:        124. kBytes
   wavefun   :      19138. kBytes
 
  
  
 General timing and accounting informations for this job:
 ========================================================
  
                  Total CPU time used (sec):      223.816
                            User time (sec):      214.637
                          System time (sec):        9.179
                         Elapsed time (sec):      227.715
  
                   Maximum memory used (kb):      379476.
                   Average memory used (kb):          N/A
  
                          Minor page faults:      2165820
                          Major page faults:            6
                 Voluntary context switches:          285
